ITEM: TIMESTEP
0
ITEM: NUMBER OF ATOMS
12000
ITEM: BOX BOUNDS xy xz yz pp pp pp
0.0000000000000000e+00 4.0392548062383007e+01 1.5957167039100001e-01
0.0000000000000000e+00 4.0232976391992004e+01 1.3297639199200001e-01
0.0000000000000000e+00 4.8119999999999997e+01 1.3297639199200001e-01
ITEM: ATOMS id type f_AVE_ATOM[1] f_AVE_ATOM[2] f_AVE_ATOM[3] 
1 1 0 0 0 
2 2 0 0 0 
3 3 0 0 0 
4 4 0 0 0 
6536 6 0 0 0 
6535 5 0 0 0 
6386 6 0 0 0 
6385 5 0 0 0 
5340 6 0 0 0 
5339 5 0 0 0 
11 1 0 0 0 
12 2 0 0 0 
13 3 0 0 0 
14 4 0 0 0 
6526 6 0 0 0 
6525 5 0 0 0 
6376 6 0 0 0 
6375 5 0 0 0 
19 5 0 0 0 
20 6 0 0 0 
21 1 0 0 0 
22 2 0 0 0 
23 3 0 0 0 
24 4 0 0 0 
6516 6 0 0 0 
6515 5 0 0 0 
6286 6 0 0 0 
6285 5 0 0 0 
29 5 0 0 0 
30 6 0 0 0 
31 1 0 0 0 
32 2 0 0 0 
33 3 0 0 0 
34 4 0 0 0 
6506 6 0 0 0 
6505 5 0 0 0 
5438 6 0 0 0 
5437 5 0 0 0 
39 5 0 0 0 
40 6 0 0 0 
41 1 0 0 0 
42 2 0 0 0 
43 3 0 0 0 
44 4 0 0 0 
6496 6 0 0 0 
6495 5 0 0 0 
5428 6 0 0 0 
5427 5 0 0 0 
49 5 0 0 0 
50 6 0 0 0 
51 1 0 0 0 
52 2 0 0 0 
53 3 0 0 0 
54 4 0 0 0 
6486 6 0 0 0 
6485 5 0 0 0 
5418 6 0 0 0 
5417 5 0 0 0 
59 5 0 0 0 
60 6 0 0 0 
121 1 0 0 0 
122 2 0 0 0 
123 3 0 0 0 
124 4 0 0 0 
6416 6 0 0 0 
6415 5 0 0 0 
127 5 0 0 0 
128 6 0 0 0 
5338 6 0 0 0 
5337 5 0 0 0 
131 1 0 0 0 
132 2 0 0 0 
133 3 0 0 0 
134 4 0 0 0 
6406 6 0 0 0 
6405 5 0 0 0 
137 5 0 0 0 
138 6 0 0 0 
139 5 0 0 0 
140 6 0 0 0 
141 1 0 0 0 
142 2 0 0 0 
143 3 0 0 0 
144 4 0 0 0 
6396 6 0 0 0 
6395 5 0 0 0 
147 5 0 0 0 
148 6 0 0 0 
149 5 0 0 0 
150 6 0 0 0 
151 1 0 0 0 
152 2 0 0 0 
153 3 0 0 0 
154 4 0 0 0 
6366 6 0 0 0 
6365 5 0 0 0 
157 5 0 0 0 
158 6 0 0 0 
159 5 0 0 0 
160 6 0 0 0 
161 1 0 0 0 
162 2 0 0 0 
163 3 0 0 0 
164 4 0 0 0 
6296 6 0 0 0 
6295 5 0 0 0 
167 5 0 0 0 
168 6 0 0 0 
169 5 0 0 0 
170 6 0 0 0 
171 1 0 0 0 
172 2 0 0 0 
173 3 0 0 0 
174 4 0 0 0 
6276 6 0 0 0 
6275 5 0 0 0 
177 5 0 0 0 
178 6 0 0 0 
179 5 0 0 0 
180 6 0 0 0 
241 1 0 0 0 
242 2 0 0 0 
243 3 0 0 0 
244 4 0 0 0 
6266 6 0 0 0 
6265 5 0 0 0 
247 5 0 0 0 
248 6 0 0 0 
5336 6 0 0 0 
5335 5 0 0 0 
251 1 0 0 0 
252 2 0 0 0 
253 3 0 0 0 
254 4 0 0 0 
6256 6 0 0 0 
6255 5 0 0 0 
257 5 0 0 0 
258 6 0 0 0 
259 5 0 0 0 
260 6 0 0 0 
261 1 0 0 0 
262 2 0 0 0 
263 3 0 0 0 
264 4 0 0 0 
6246 6 0 0 0 
6245 5 0 0 0 
267 5 0 0 0 
268 6 0 0 0 
269 5 0 0 0 
270 6 0 0 0 
271 1 0 0 0 
272 2 0 0 0 
273 3 0 0 0 
274 4 0 0 0 
6176 6 0 0 0 
6175 5 0 0 0 
277 5 0 0 0 
278 6 0 0 0 
279 5 0 0 0 
280 6 0 0 0 
281 1 0 0 0 
282 2 0 0 0 
283 3 0 0 0 
284 4 0 0 0 
6166 6 0 0 0 
6165 5 0 0 0 
287 5 0 0 0 
288 6 0 0 0 
289 5 0 0 0 
290 6 0 0 0 
291 1 0 0 0 
292 2 0 0 0 
293 3 0 0 0 
294 4 0 0 0 
6156 6 0 0 0 
6155 5 0 0 0 
297 5 0 0 0 
298 6 0 0 0 
299 5 0 0 0 
300 6 0 0 0 
361 1 0 0 0 
362 2 0 0 0 
363 3 0 0 0 
364 4 0 0 0 
6146 6 0 0 0 
6145 5 0 0 0 
367 5 0 0 0 
368 6 0 0 0 
5334 4 0 0 0 
5333 3 0 0 0 
371 1 0 0 0 
372 2 0 0 0 
373 3 0 0 0 
374 4 0 0 0 
6136 6 0 0 0 
6135 5 0 0 0 
377 5 0 0 0 
378 6 0 0 0 
379 5 0 0 0 
380 6 0 0 0 
381 1 0 0 0 
382 2 0 0 0 
383 3 0 0 0 
384 4 0 0 0 
6126 6 0 0 0 
6125 5 0 0 0 
387 5 0 0 0 
388 6 0 0 0 
389 5 0 0 0 
390 6 0 0 0 
391 1 0 0 0 
392 2 0 0 0 
393 3 0 0 0 
394 4 0 0 0 
6056 6 0 0 0 
6055 5 0 0 0 
397 5 0 0 0 
398 6 0 0 0 
399 5 0 0 0 
400 6 0 0 0 
401 1 0 0 0 
402 2 0 0 0 
403 3 0 0 0 
404 4 0 0 0 
6046 6 0 0 0 
6045 5 0 0 0 
407 5 0 0 0 
408 6 0 0 0 
409 5 0 0 0 
410 6 0 0 0 
411 1 0 0 0 
412 2 0 0 0 
413 3 0 0 0 
414 4 0 0 0 
6036 6 0 0 0 
6035 5 0 0 0 
417 5 0 0 0 
418 6 0 0 0 
419 5 0 0 0 
420 6 0 0 0 
481 1 0 0 0 
482 2 0 0 0 
483 3 0 0 0 
484 4 0 0 0 
6026 6 0 0 0 
6025 5 0 0 0 
487 5 0 0 0 
488 6 0 0 0 
5332 2 0 0 0 
5331 1 0 0 0 
491 1 0 0 0 
492 2 0 0 0 
493 3 0 0 0 
494 4 0 0 0 
6016 6 0 0 0 
6015 5 0 0 0 
497 5 0 0 0 
498 6 0 0 0 
499 5 0 0 0 
500 6 0 0 0 
501 1 0 0 0 
502 2 0 0 0 
503 3 0 0 0 
504 4 0 0 0 
6006 6 0 0 0 
6005 5 0 0 0 
507 5 0 0 0 
508 6 0 0 0 
509 5 0 0 0 
510 6 0 0 0 
511 1 0 0 0 
512 2 0 0 0 
513 3 0 0 0 
514 4 0 0 0 
5458 6 0 0 0 
5457 5 0 0 0 
517 5 0 0 0 
518 6 0 0 0 
519 5 0 0 0 
520 6 0 0 0 
521 1 0 0 0 
522 2 0 0 0 
523 3 0 0 0 
524 4 0 0 0 
5408 6 0 0 0 
5407 5 0 0 0 
527 5 0 0 0 
528 6 0 0 0 
529 5 0 0 0 
530 6 0 0 0 
531 1 0 0 0 
532 2 0 0 0 
533 3 0 0 0 
534 4 0 0 0 
5448 6 0 0 0 
5447 5 0 0 0 
537 5 0 0 0 
538 6 0 0 0 
539 5 0 0 0 
540 6 0 0 0 
1201 1 0 0 0 
1202 2 0 0 0 
1203 3 0 0 0 
1204 4 0 0 0 
1205 5 0 0 0 
1206 6 0 0 0 
4258 6 0 0 0 
4257 5 0 0 0 
5330 6 0 0 0 
5329 5 0 0 0 
1211 1 0 0 0 
1212 2 0 0 0 
1213 3 0 0 0 
1214 4 0 0 0 
1215 5 0 0 0 
1216 6 0 0 0 
4248 6 0 0 0 
4247 5 0 0 0 
1219 5 0 0 0 
1220 6 0 0 0 
1221 1 0 0 0 
1222 2 0 0 0 
1223 3 0 0 0 
1224 4 0 0 0 
1225 5 0 0 0 
1226 6 0 0 0 
4238 6 0 0 0 
4237 5 0 0 0 
1229 5 0 0 0 
1230 6 0 0 0 
1231 1 0 0 0 
1232 2 0 0 0 
1233 3 0 0 0 
1234 4 0 0 0 
1235 5 0 0 0 
1236 6 0 0 0 
4228 6 0 0 0 
4227 5 0 0 0 
1239 5 0 0 0 
1240 6 0 0 0 
1241 1 0 0 0 
1242 2 0 0 0 
1243 3 0 0 0 
1244 4 0 0 0 
1245 5 0 0 0 
1246 6 0 0 0 
4218 6 0 0 0 
4217 5 0 0 0 
1249 5 0 0 0 
1250 6 0 0 0 
1251 1 0 0 0 
1252 2 0 0 0 
1253 3 0 0 0 
1254 4 0 0 0 
1255 5 0 0 0 
1256 6 0 0 0 
4208 6 0 0 0 
4207 5 0 0 0 
1259 5 0 0 0 
1260 6 0 0 0 
1321 1 0 0 0 
1322 2 0 0 0 
1323 3 0 0 0 
1324 4 0 0 0 
1325 5 0 0 0 
1326 6 0 0 0 
1327 5 0 0 0 
1328 6 0 0 0 
5328 6 0 0 0 
5327 5 0 0 0 
1331 1 0 0 0 
1332 2 0 0 0 
1333 3 0 0 0 
1334 4 0 0 0 
1335 5 0 0 0 
1336 6 0 0 0 
1337 5 0 0 0 
1338 6 0 0 0 
1339 5 0 0 0 
1340 6 0 0 0 
1341 1 0 0 0 
1342 2 0 0 0 
1343 3 0 0 0 
1344 4 0 0 0 
1345 5 0 0 0 
1346 6 0 0 0 
1347 5 0 0 0 
1348 6 0 0 0 
1349 5 0 0 0 
1350 6 0 0 0 
1351 1 0 0 0 
1352 2 0 0 0 
1353 3 0 0 0 
1354 4 0 0 0 
1355 5 0 0 0 
1356 6 0 0 0 
1357 5 0 0 0 
1358 6 0 0 0 
1359 5 0 0 0 
1360 6 0 0 0 
1361 1 0 0 0 
1362 2 0 0 0 
1363 3 0 0 0 
1364 4 0 0 0 
1365 5 0 0 0 
1366 6 0 0 0 
1367 5 0 0 0 
1368 6 0 0 0 
1369 5 0 0 0 
1370 6 0 0 0 
1371 1 0 0 0 
1372 2 0 0 0 
1373 3 0 0 0 
1374 4 0 0 0 
1375 5 0 0 0 
1376 6 0 0 0 
1377 5 0 0 0 
1378 6 0 0 0 
1379 5 0 0 0 
1380 6 0 0 0 
1441 1 0 0 0 
1442 2 0 0 0 
1443 3 0 0 0 
1444 4 0 0 0 
1445 5 0 0 0 
1446 6 0 0 0 
1447 5 0 0 0 
1448 6 0 0 0 
5326 6 0 0 0 
5325 5 0 0 0 
1451 1 0 0 0 
1452 2 0 0 0 
1453 3 0 0 0 
1454 4 0 0 0 
1455 5 0 0 0 
1456 6 0 0 0 
1457 5 0 0 0 
1458 6 0 0 0 
1459 5 0 0 0 
1460 6 0 0 0 
1461 1 0 0 0 
1462 2 0 0 0 
1463 3 0 0 0 
1464 4 0 0 0 
1465 5 0 0 0 
1466 6 0 0 0 
1467 5 0 0 0 
1468 6 0 0 0 
1469 5 0 0 0 
1470 6 0 0 0 
1471 1 0 0 0 
1472 2 0 0 0 
1473 3 0 0 0 
1474 4 0 0 0 
1475 5 0 0 0 
1476 6 0 0 0 
1477 5 0 0 0 
1478 6 0 0 0 
1479 5 0 0 0 
1480 6 0 0 0 
1481 1 0 0 0 
1482 2 0 0 0 
1483 3 0 0 0 
1484 4 0 0 0 
1485 5 0 0 0 
1486 6 0 0 0 
1487 5 0 0 0 
1488 6 0 0 0 
1489 5 0 0 0 
1490 6 0 0 0 
1491 1 0 0 0 
1492 2 0 0 0 
1493 3 0 0 0 
1494 4 0 0 0 
1495 5 0 0 0 
1496 6 0 0 0 
1497 5 0 0 0 
1498 6 0 0 0 
1499 5 0 0 0 
1500 6 0 0 0 
1561 1 0 0 0 
1562 2 0 0 0 
1563 3 0 0 0 
1564 4 0 0 0 
1565 5 0 0 0 
1566 6 0 0 0 
1567 5 0 0 0 
1568 6 0 0 0 
5324 4 0 0 0 
5323 3 0 0 0 
1571 1 0 0 0 
1572 2 0 0 0 
1573 3 0 0 0 
1574 4 0 0 0 
1575 5 0 0 0 
1576 6 0 0 0 
1577 5 0 0 0 
1578 6 0 0 0 
1579 5 0 0 0 
1580 6 0 0 0 
1581 1 0 0 0 
1582 2 0 0 0 
1583 3 0 0 0 
1584 4 0 0 0 
1585 5 0 0 0 
1586 6 0 0 0 
1587 5 0 0 0 
1588 6 0 0 0 
1589 5 0 0 0 
1590 6 0 0 0 
1591 1 0 0 0 
1592 2 0 0 0 
1593 3 0 0 0 
1594 4 0 0 0 
1595 5 0 0 0 
1596 6 0 0 0 
1597 5 0 0 0 
1598 6 0 0 0 
1599 5 0 0 0 
1600 6 0 0 0 
1601 1 0 0 0 
1602 2 0 0 0 
1603 3 0 0 0 
1604 4 0 0 0 
1605 5 0 0 0 
1606 6 0 0 0 
1607 5 0 0 0 
1608 6 0 0 0 
1609 5 0 0 0 
1610 6 0 0 0 
1611 1 0 0 0 
1612 2 0 0 0 
1613 3 0 0 0 
1614 4 0 0 0 
1615 5 0 0 0 
1616 6 0 0 0 
1617 5 0 0 0 
1618 6 0 0 0 
1619 5 0 0 0 
1620 6 0 0 0 
1681 1 0 0 0 
1682 2 0 0 0 
1683 3 0 0 0 
1684 4 0 0 0 
1685 5 0 0 0 
1686 6 0 0 0 
1687 5 0 0 0 
1688 6 0 0 0 
5322 2 0 0 0 
5321 1 0 0 0 
1691 1 0 0 0 
1692 2 0 0 0 
1693 3 0 0 0 
1694 4 0 0 0 
1695 5 0 0 0 
1696 6 0 0 0 
1697 5 0 0 0 
1698 6 0 0 0 
1699 5 0 0 0 
1700 6 0 0 0 
1701 1 0 0 0 
1702 2 0 0 0 
1703 3 0 0 0 
1704 4 0 0 0 
1705 5 0 0 0 
1706 6 0 0 0 
1707 5 0 0 0 
1708 6 0 0 0 
1709 5 0 0 0 
1710 6 0 0 0 
1711 1 0 0 0 
1712 2 0 0 0 
1713 3 0 0 0 
1714 4 0 0 0 
1715 5 0 0 0 
1716 6 0 0 0 
1717 5 0 0 0 
1718 6 0 0 0 
1719 5 0 0 0 
1720 6 0 0 0 
1721 1 0 0 0 
1722 2 0 0 0 
1723 3 0 0 0 
1724 4 0 0 0 
1725 5 0 0 0 
1726 6 0 0 0 
1727 5 0 0 0 
1728 6 0 0 0 
1729 5 0 0 0 
1730 6 0 0 0 
1731 1 0 0 0 
1732 2 0 0 0 
1733 3 0 0 0 
1734 4 0 0 0 
1735 5 0 0 0 
1736 6 0 0 0 
1737 5 0 0 0 
1738 6 0 0 0 
1739 5 0 0 0 
1740 6 0 0 0 
2401 1 0 0 0 
2402 2 0 0 0 
2403 3 0 0 0 
2404 4 0 0 0 
2405 5 0 0 0 
2406 6 0 0 0 
3058 6 0 0 0 
3057 5 0 0 0 
5320 6 0 0 0 
5319 5 0 0 0 
2411 1 0 0 0 
2412 2 0 0 0 
2413 3 0 0 0 
2414 4 0 0 0 
2415 5 0 0 0 
2416 6 0 0 0 
3048 6 0 0 0 
3047 5 0 0 0 
2419 5 0 0 0 
2420 6 0 0 0 
2421 1 0 0 0 
2422 2 0 0 0 
2423 3 0 0 0 
2424 4 0 0 0 
2425 5 0 0 0 
2426 6 0 0 0 
3038 6 0 0 0 
3037 5 0 0 0 
2429 5 0 0 0 
2430 6 0 0 0 
2431 1 0 0 0 
2432 2 0 0 0 
2433 3 0 0 0 
2434 4 0 0 0 
2435 5 0 0 0 
2436 6 0 0 0 
3028 6 0 0 0 
3027 5 0 0 0 
2439 5 0 0 0 
2440 6 0 0 0 
2441 1 0 0 0 
2442 2 0 0 0 
2443 3 0 0 0 
2444 4 0 0 0 
2445 5 0 0 0 
2446 6 0 0 0 
3018 6 0 0 0 
3017 5 0 0 0 
2449 5 0 0 0 
2450 6 0 0 0 
2451 1 0 0 0 
2452 2 0 0 0 
2453 3 0 0 0 
2454 4 0 0 0 
2455 5 0 0 0 
2456 6 0 0 0 
3008 6 0 0 0 
3007 5 0 0 0 
2459 5 0 0 0 
2460 6 0 0 0 
2521 1 0 0 0 
2522 2 0 0 0 
2523 3 0 0 0 
2524 4 0 0 0 
2525 5 0 0 0 
2526 6 0 0 0 
2527 5 0 0 0 
2528 6 0 0 0 
5318 6 0 0 0 
5317 5 0 0 0 
2531 1 0 0 0 
2532 2 0 0 0 
2533 3 0 0 0 
2534 4 0 0 0 
2535 5 0 0 0 
2536 6 0 0 0 
2537 5 0 0 0 
2538 6 0 0 0 
2539 5 0 0 0 
2540 6 0 0 0 
2541 1 0 0 0 
2542 2 0 0 0 
2543 3 0 0 0 
2544 4 0 0 0 
2545 5 0 0 0 
2546 6 0 0 0 
2547 5 0 0 0 
2548 6 0 0 0 
2549 5 0 0 0 
2550 6 0 0 0 
2551 1 0 0 0 
2552 2 0 0 0 
2553 3 0 0 0 
2554 4 0 0 0 
2555 5 0 0 0 
2556 6 0 0 0 
2557 5 0 0 0 
2558 6 0 0 0 
2559 5 0 0 0 
2560 6 0 0 0 
2561 1 0 0 0 
2562 2 0 0 0 
2563 3 0 0 0 
2564 4 0 0 0 
2565 5 0 0 0 
2566 6 0 0 0 
2567 5 0 0 0 
2568 6 0 0 0 
2569 5 0 0 0 
2570 6 0 0 0 
2571 1 0 0 0 
2572 2 0 0 0 
2573 3 0 0 0 
2574 4 0 0 0 
2575 5 0 0 0 
2576 6 0 0 0 
2577 5 0 0 0 
2578 6 0 0 0 
2579 5 0 0 0 
2580 6 0 0 0 
2641 1 0 0 0 
2642 2 0 0 0 
2643 3 0 0 0 
2644 4 0 0 0 
2645 5 0 0 0 
2646 6 0 0 0 
2647 5 0 0 0 
2648 6 0 0 0 
5316 6 0 0 0 
5315 5 0 0 0 
2651 1 0 0 0 
2652 2 0 0 0 
2653 3 0 0 0 
2654 4 0 0 0 
2655 5 0 0 0 
2656 6 0 0 0 
2657 5 0 0 0 
2658 6 0 0 0 
2659 5 0 0 0 
2660 6 0 0 0 
2661 1 0 0 0 
2662 2 0 0 0 
2663 3 0 0 0 
2664 4 0 0 0 
2665 5 0 0 0 
2666 6 0 0 0 
2667 5 0 0 0 
2668 6 0 0 0 
2669 5 0 0 0 
2670 6 0 0 0 
2671 1 0 0 0 
2672 2 0 0 0 
2673 3 0 0 0 
2674 4 0 0 0 
2675 5 0 0 0 
2676 6 0 0 0 
2677 5 0 0 0 
2678 6 0 0 0 
2679 5 0 0 0 
2680 6 0 0 0 
2681 1 0 0 0 
2682 2 0 0 0 
2683 3 0 0 0 
2684 4 0 0 0 
2685 5 0 0 0 
2686 6 0 0 0 
2687 5 0 0 0 
2688 6 0 0 0 
2689 5 0 0 0 
2690 6 0 0 0 
2691 1 0 0 0 
2692 2 0 0 0 
2693 3 0 0 0 
2694 4 0 0 0 
2695 5 0 0 0 
2696 6 0 0 0 
2697 5 0 0 0 
2698 6 0 0 0 
2699 5 0 0 0 
2700 6 0 0 0 
2761 1 0 0 0 
2762 2 0 0 0 
2763 3 0 0 0 
2764 4 0 0 0 
2765 5 0 0 0 
2766 6 0 0 0 
2767 5 0 0 0 
2768 6 0 0 0 
5314 4 0 0 0 
5313 3 0 0 0 
2771 1 0 0 0 
2772 2 0 0 0 
2773 3 0 0 0 
2774 4 0 0 0 
2775 5 0 0 0 
2776 6 0 0 0 
2777 5 0 0 0 
2778 6 0 0 0 
2779 5 0 0 0 
2780 6 0 0 0 
2781 1 0 0 0 
2782 2 0 0 0 
2783 3 0 0 0 
2784 4 0 0 0 
2785 5 0 0 0 
2786 6 0 0 0 
2787 5 0 0 0 
2788 6 0 0 0 
2789 5 0 0 0 
2790 6 0 0 0 
2791 1 0 0 0 
2792 2 0 0 0 
2793 3 0 0 0 
2794 4 0 0 0 
2795 5 0 0 0 
2796 6 0 0 0 
2797 5 0 0 0 
2798 6 0 0 0 
2799 5 0 0 0 
2800 6 0 0 0 
2801 1 0 0 0 
2802 2 0 0 0 
2803 3 0 0 0 
2804 4 0 0 0 
2805 5 0 0 0 
2806 6 0 0 0 
2807 5 0 0 0 
2808 6 0 0 0 
2809 5 0 0 0 
2810 6 0 0 0 
2811 1 0 0 0 
2812 2 0 0 0 
2813 3 0 0 0 
2814 4 0 0 0 
2815 5 0 0 0 
2816 6 0 0 0 
2817 5 0 0 0 
2818 6 0 0 0 
2819 5 0 0 0 
2820 6 0 0 0 
2881 1 0 0 0 
2882 2 0 0 0 
2883 3 0 0 0 
2884 4 0 0 0 
2885 5 0 0 0 
2886 6 0 0 0 
2887 5 0 0 0 
2888 6 0 0 0 
5312 2 0 0 0 
5311 1 0 0 0 
2891 1 0 0 0 
2892 2 0 0 0 
2893 3 0 0 0 
2894 4 0 0 0 
2895 5 0 0 0 
2896 6 0 0 0 
2897 5 0 0 0 
2898 6 0 0 0 
2899 5 0 0 0 
2900 6 0 0 0 
2901 1 0 0 0 
2902 2 0 0 0 
2903 3 0 0 0 
2904 4 0 0 0 
2905 5 0 0 0 
2906 6 0 0 0 
2907 5 0 0 0 
2908 6 0 0 0 
2909 5 0 0 0 
2910 6 0 0 0 
2911 1 0 0 0 
2912 2 0 0 0 
2913 3 0 0 0 
2914 4 0 0 0 
2915 5 0 0 0 
2916 6 0 0 0 
2917 5 0 0 0 
2918 6 0 0 0 
2919 5 0 0 0 
2920 6 0 0 0 
2921 1 0 0 0 
2922 2 0 0 0 
2923 3 0 0 0 
2924 4 0 0 0 
2925 5 0 0 0 
2926 6 0 0 0 
2927 5 0 0 0 
2928 6 0 0 0 
2929 5 0 0 0 
2930 6 0 0 0 
2931 1 0 0 0 
2932 2 0 0 0 
2933 3 0 0 0 
2934 4 0 0 0 
2935 5 0 0 0 
2936 6 0 0 0 
2937 5 0 0 0 
2938 6 0 0 0 
2939 5 0 0 0 
2940 6 0 0 0 
3601 1 0 0 0 
3602 2 0 0 0 
3603 3 0 0 0 
3604 4 0 0 0 
3605 5 0 0 0 
3606 6 0 0 0 
1858 6 0 0 0 
1857 5 0 0 0 
5310 6 0 0 0 
5309 5 0 0 0 
3611 1 0 0 0 
3612 2 0 0 0 
3613 3 0 0 0 
3614 4 0 0 0 
3615 5 0 0 0 
3616 6 0 0 0 
1848 6 0 0 0 
1847 5 0 0 0 
3619 5 0 0 0 
3620 6 0 0 0 
3621 1 0 0 0 
3622 2 0 0 0 
3623 3 0 0 0 
3624 4 0 0 0 
3625 5 0 0 0 
3626 6 0 0 0 
1838 6 0 0 0 
1837 5 0 0 0 
3629 5 0 0 0 
3630 6 0 0 0 
3631 1 0 0 0 
3632 2 0 0 0 
3633 3 0 0 0 
3634 4 0 0 0 
3635 5 0 0 0 
3636 6 0 0 0 
1828 6 0 0 0 
1827 5 0 0 0 
3639 5 0 0 0 
3640 6 0 0 0 
3641 1 0 0 0 
3642 2 0 0 0 
3643 3 0 0 0 
3644 4 0 0 0 
3645 5 0 0 0 
3646 6 0 0 0 
1818 6 0 0 0 
1817 5 0 0 0 
3649 5 0 0 0 
3650 6 0 0 0 
3651 1 0 0 0 
3652 2 0 0 0 
3653 3 0 0 0 
3654 4 0 0 0 
3655 5 0 0 0 
3656 6 0 0 0 
1808 6 0 0 0 
1807 5 0 0 0 
3659 5 0 0 0 
3660 6 0 0 0 
3721 1 0 0 0 
3722 2 0 0 0 
3723 3 0 0 0 
3724 4 0 0 0 
3725 5 0 0 0 
3726 6 0 0 0 
3727 5 0 0 0 
3728 6 0 0 0 
5308 6 0 0 0 
5307 5 0 0 0 
3731 1 0 0 0 
3732 2 0 0 0 
3733 3 0 0 0 
3734 4 0 0 0 
3735 5 0 0 0 
3736 6 0 0 0 
3737 5 0 0 0 
3738 6 0 0 0 
3739 5 0 0 0 
3740 6 0 0 0 
3741 1 0 0 0 
3742 2 0 0 0 
3743 3 0 0 0 
3744 4 0 0 0 
3745 5 0 0 0 
3746 6 0 0 0 
3747 5 0 0 0 
3748 6 0 0 0 
3749 5 0 0 0 
3750 6 0 0 0 
3751 1 0 0 0 
3752 2 0 0 0 
3753 3 0 0 0 
3754 4 0 0 0 
3755 5 0 0 0 
3756 6 0 0 0 
3757 5 0 0 0 
3758 6 0 0 0 
3759 5 0 0 0 
3760 6 0 0 0 
3761 1 0 0 0 
3762 2 0 0 0 
3763 3 0 0 0 
3764 4 0 0 0 
3765 5 0 0 0 
3766 6 0 0 0 
3767 5 0 0 0 
3768 6 0 0 0 
3769 5 0 0 0 
3770 6 0 0 0 
3771 1 0 0 0 
3772 2 0 0 0 
3773 3 0 0 0 
3774 4 0 0 0 
3775 5 0 0 0 
3776 6 0 0 0 
3777 5 0 0 0 
3778 6 0 0 0 
3779 5 0 0 0 
3780 6 0 0 0 
3841 1 0 0 0 
3842 2 0 0 0 
3843 3 0 0 0 
3844 4 0 0 0 
3845 5 0 0 0 
3846 6 0 0 0 
3847 5 0 0 0 
3848 6 0 0 0 
5306 6 0 0 0 
5305 5 0 0 0 
3851 1 0 0 0 
3852 2 0 0 0 
3853 3 0 0 0 
3854 4 0 0 0 
3855 5 0 0 0 
3856 6 0 0 0 
3857 5 0 0 0 
3858 6 0 0 0 
3859 5 0 0 0 
3860 6 0 0 0 
3861 1 0 0 0 
3862 2 0 0 0 
3863 3 0 0 0 
3864 4 0 0 0 
3865 5 0 0 0 
3866 6 0 0 0 
3867 5 0 0 0 
3868 6 0 0 0 
3869 5 0 0 0 
3870 6 0 0 0 
3871 1 0 0 0 
3872 2 0 0 0 
3873 3 0 0 0 
3874 4 0 0 0 
3875 5 0 0 0 
3876 6 0 0 0 
3877 5 0 0 0 
3878 6 0 0 0 
3879 5 0 0 0 
3880 6 0 0 0 
3881 1 0 0 0 
3882 2 0 0 0 
3883 3 0 0 0 
3884 4 0 0 0 
3885 5 0 0 0 
3886 6 0 0 0 
3887 5 0 0 0 
3888 6 0 0 0 
3889 5 0 0 0 
3890 6 0 0 0 
3891 1 0 0 0 
3892 2 0 0 0 
3893 3 0 0 0 
3894 4 0 0 0 
3895 5 0 0 0 
3896 6 0 0 0 
3897 5 0 0 0 
3898 6 0 0 0 
3899 5 0 0 0 
3900 6 0 0 0 
3961 1 0 0 0 
3962 2 0 0 0 
3963 3 0 0 0 
3964 4 0 0 0 
3965 5 0 0 0 
3966 6 0 0 0 
3967 5 0 0 0 
3968 6 0 0 0 
5304 4 0 0 0 
5303 3 0 0 0 
3971 1 0 0 0 
3972 2 0 0 0 
3973 3 0 0 0 
3974 4 0 0 0 
3975 5 0 0 0 
3976 6 0 0 0 
3977 5 0 0 0 
3978 6 0 0 0 
3979 5 0 0 0 
3980 6 0 0 0 
3981 1 0 0 0 
3982 2 0 0 0 
3983 3 0 0 0 
3984 4 0 0 0 
3985 5 0 0 0 
3986 6 0 0 0 
3987 5 0 0 0 
3988 6 0 0 0 
3989 5 0 0 0 
3990 6 0 0 0 
3991 1 0 0 0 
3992 2 0 0 0 
3993 3 0 0 0 
3994 4 0 0 0 
3995 5 0 0 0 
3996 6 0 0 0 
3997 5 0 0 0 
3998 6 0 0 0 
3999 5 0 0 0 
4000 6 0 0 0 
4001 1 0 0 0 
4002 2 0 0 0 
4003 3 0 0 0 
4004 4 0 0 0 
4005 5 0 0 0 
4006 6 0 0 0 
4007 5 0 0 0 
4008 6 0 0 0 
4009 5 0 0 0 
4010 6 0 0 0 
4011 1 0 0 0 
4012 2 0 0 0 
4013 3 0 0 0 
4014 4 0 0 0 
4015 5 0 0 0 
4016 6 0 0 0 
4017 5 0 0 0 
4018 6 0 0 0 
4019 5 0 0 0 
4020 6 0 0 0 
4081 1 0 0 0 
4082 2 0 0 0 
4083 3 0 0 0 
4084 4 0 0 0 
4085 5 0 0 0 
4086 6 0 0 0 
4087 5 0 0 0 
4088 6 0 0 0 
5302 2 0 0 0 
5301 1 0 0 0 
4091 1 0 0 0 
4092 2 0 0 0 
4093 3 0 0 0 
4094 4 0 0 0 
4095 5 0 0 0 
4096 6 0 0 0 
4097 5 0 0 0 
4098 6 0 0 0 
4099 5 0 0 0 
4100 6 0 0 0 
4101 1 0 0 0 
4102 2 0 0 0 
4103 3 0 0 0 
4104 4 0 0 0 
4105 5 0 0 0 
4106 6 0 0 0 
4107 5 0 0 0 
4108 6 0 0 0 
4109 5 0 0 0 
4110 6 0 0 0 
4111 1 0 0 0 
4112 2 0 0 0 
4113 3 0 0 0 
4114 4 0 0 0 
4115 5 0 0 0 
4116 6 0 0 0 
4117 5 0 0 0 
4118 6 0 0 0 
4119 5 0 0 0 
4120 6 0 0 0 
4121 1 0 0 0 
4122 2 0 0 0 
4123 3 0 0 0 
4124 4 0 0 0 
4125 5 0 0 0 
4126 6 0 0 0 
4127 5 0 0 0 
4128 6 0 0 0 
4129 5 0 0 0 
4130 6 0 0 0 
4131 1 0 0 0 
4132 2 0 0 0 
4133 3 0 0 0 
4134 4 0 0 0 
4135 5 0 0 0 
4136 6 0 0 0 
4137 5 0 0 0 
4138 6 0 0 0 
4139 5 0 0 0 
4140 6 0 0 0 
4801 1 0 0 0 
4802 2 0 0 0 
4803 3 0 0 0 
4804 4 0 0 0 
4805 5 0 0 0 
4806 6 0 0 0 
658 6 0 0 0 
657 5 0 0 0 
5300 6 0 0 0 
5299 5 0 0 0 
4811 1 0 0 0 
4812 2 0 0 0 
4813 3 0 0 0 
4814 4 0 0 0 
4815 5 0 0 0 
4816 6 0 0 0 
648 6 0 0 0 
647 5 0 0 0 
4819 5 0 0 0 
4820 6 0 0 0 
4821 1 0 0 0 
4822 2 0 0 0 
4823 3 0 0 0 
4824 4 0 0 0 
4825 5 0 0 0 
4826 6 0 0 0 
638 6 0 0 0 
637 5 0 0 0 
4829 5 0 0 0 
4830 6 0 0 0 
4831 1 0 0 0 
4832 2 0 0 0 
4833 3 0 0 0 
4834 4 0 0 0 
4835 5 0 0 0 
4836 6 0 0 0 
628 6 0 0 0 
627 5 0 0 0 
4839 5 0 0 0 
4840 6 0 0 0 
4841 1 0 0 0 
4842 2 0 0 0 
4843 3 0 0 0 
4844 4 0 0 0 
4845 5 0 0 0 
4846 6 0 0 0 
618 6 0 0 0 
617 5 0 0 0 
4849 5 0 0 0 
4850 6 0 0 0 
4851 1 0 0 0 
4852 2 0 0 0 
4853 3 0 0 0 
4854 4 0 0 0 
4855 5 0 0 0 
4856 6 0 0 0 
608 6 0 0 0 
607 5 0 0 0 
4859 5 0 0 0 
4860 6 0 0 0 
4921 1 0 0 0 
4922 2 0 0 0 
4923 3 0 0 0 
4924 4 0 0 0 
4925 5 0 0 0 
4926 6 0 0 0 
4927 5 0 0 0 
4928 6 0 0 0 
5298 6 0 0 0 
5297 5 0 0 0 
4931 1 0 0 0 
4932 2 0 0 0 
4933 3 0 0 0 
4934 4 0 0 0 
4935 5 0 0 0 
4936 6 0 0 0 
4937 5 0 0 0 
4938 6 0 0 0 
4939 5 0 0 0 
4940 6 0 0 0 
4941 1 0 0 0 
4942 2 0 0 0 
4943 3 0 0 0 
4944 4 0 0 0 
4945 5 0 0 0 
4946 6 0 0 0 
4947 5 0 0 0 
4948 6 0 0 0 
4949 5 0 0 0 
4950 6 0 0 0 
4951 1 0 0 0 
4952 2 0 0 0 
4953 3 0 0 0 
4954 4 0 0 0 
4955 5 0 0 0 
4956 6 0 0 0 
4957 5 0 0 0 
4958 6 0 0 0 
4959 5 0 0 0 
4960 6 0 0 0 
4961 1 0 0 0 
4962 2 0 0 0 
4963 3 0 0 0 
4964 4 0 0 0 
4965 5 0 0 0 
4966 6 0 0 0 
4967 5 0 0 0 
4968 6 0 0 0 
4969 5 0 0 0 
4970 6 0 0 0 
4971 1 0 0 0 
4972 2 0 0 0 
4973 3 0 0 0 
4974 4 0 0 0 
4975 5 0 0 0 
4976 6 0 0 0 
4977 5 0 0 0 
4978 6 0 0 0 
4979 5 0 0 0 
4980 6 0 0 0 
5041 1 0 0 0 
5042 2 0 0 0 
5043 3 0 0 0 
5044 4 0 0 0 
5045 5 0 0 0 
5046 6 0 0 0 
5047 5 0 0 0 
5048 6 0 0 0 
5296 6 0 0 0 
5295 5 0 0 0 
5051 1 0 0 0 
5052 2 0 0 0 
5053 3 0 0 0 
5054 4 0 0 0 
5055 5 0 0 0 
5056 6 0 0 0 
5057 5 0 0 0 
5058 6 0 0 0 
5059 5 0 0 0 
5060 6 0 0 0 
5061 1 0 0 0 
5062 2 0 0 0 
5063 3 0 0 0 
5064 4 0 0 0 
5065 5 0 0 0 
5066 6 0 0 0 
5067 5 0 0 0 
5068 6 0 0 0 
5069 5 0 0 0 
5070 6 0 0 0 
5071 1 0 0 0 
5072 2 0 0 0 
5073 3 0 0 0 
5074 4 0 0 0 
5075 5 0 0 0 
5076 6 0 0 0 
5077 5 0 0 0 
5078 6 0 0 0 
5079 5 0 0 0 
5080 6 0 0 0 
5081 1 0 0 0 
5082 2 0 0 0 
5083 3 0 0 0 
5084 4 0 0 0 
5085 5 0 0 0 
5086 6 0 0 0 
5087 5 0 0 0 
5088 6 0 0 0 
5089 5 0 0 0 
5090 6 0 0 0 
5091 1 0 0 0 
5092 2 0 0 0 
5093 3 0 0 0 
5094 4 0 0 0 
5095 5 0 0 0 
5096 6 0 0 0 
5097 5 0 0 0 
5098 6 0 0 0 
5099 5 0 0 0 
5100 6 0 0 0 
5161 1 0 0 0 
5162 2 0 0 0 
5163 3 0 0 0 
5164 4 0 0 0 
5165 5 0 0 0 
5166 6 0 0 0 
5167 5 0 0 0 
5168 6 0 0 0 
5294 4 0 0 0 
5293 3 0 0 0 
5171 1 0 0 0 
5172 2 0 0 0 
5173 3 0 0 0 
5174 4 0 0 0 
5175 5 0 0 0 
5176 6 0 0 0 
5177 5 0 0 0 
5178 6 0 0 0 
5179 5 0 0 0 
5180 6 0 0 0 
5181 1 0 0 0 
5182 2 0 0 0 
5183 3 0 0 0 
5184 4 0 0 0 
5185 5 0 0 0 
5186 6 0 0 0 
5187 5 0 0 0 
5188 6 0 0 0 
5189 5 0 0 0 
5190 6 0 0 0 
5191 1 0 0 0 
5192 2 0 0 0 
5193 3 0 0 0 
5194 4 0 0 0 
5195 5 0 0 0 
5196 6 0 0 0 
5197 5 0 0 0 
5198 6 0 0 0 
5199 5 0 0 0 
5200 6 0 0 0 
5201 1 0 0 0 
5202 2 0 0 0 
5203 3 0 0 0 
5204 4 0 0 0 
5205 5 0 0 0 
5206 6 0 0 0 
5207 5 0 0 0 
5208 6 0 0 0 
5209 5 0 0 0 
5210 6 0 0 0 
5211 1 0 0 0 
5212 2 0 0 0 
5213 3 0 0 0 
5214 4 0 0 0 
5215 5 0 0 0 
5216 6 0 0 0 
5217 5 0 0 0 
5218 6 0 0 0 
5219 5 0 0 0 
5220 6 0 0 0 
5281 1 0 0 0 
5282 2 0 0 0 
5283 3 0 0 0 
5284 4 0 0 0 
5285 5 0 0 0 
5286 6 0 0 0 
5287 5 0 0 0 
5288 6 0 0 0 
5292 2 0 0 0 
5291 1 0 0 0 
69 5 0 0 0 
70 6 0 0 0 
189 5 0 0 0 
190 6 0 0 0 
309 5 0 0 0 
310 6 0 0 0 
429 5 0 0 0 
430 6 0 0 0 
549 5 0 0 0 
550 6 0 0 0 
1269 5 0 0 0 
1270 6 0 0 0 
1389 5 0 0 0 
1390 6 0 0 0 
1509 5 0 0 0 
1510 6 0 0 0 
1629 5 0 0 0 
1630 6 0 0 0 
1749 5 0 0 0 
1750 6 0 0 0 
2469 5 0 0 0 
2470 6 0 0 0 
2589 5 0 0 0 
2590 6 0 0 0 
2709 5 0 0 0 
2710 6 0 0 0 
2829 5 0 0 0 
2830 6 0 0 0 
2949 5 0 0 0 
2950 6 0 0 0 
3669 5 0 0 0 
3670 6 0 0 0 
3789 5 0 0 0 
3790 6 0 0 0 
3909 5 0 0 0 
3910 6 0 0 0 
4029 5 0 0 0 
4030 6 0 0 0 
4149 5 0 0 0 
4150 6 0 0 0 
4869 5 0 0 0 
4870 6 0 0 0 
4989 5 0 0 0 
4990 6 0 0 0 
5109 5 0 0 0 
5110 6 0 0 0 
5229 5 0 0 0 
5230 6 0 0 0 
5349 5 0 0 0 
5350 6 0 0 0 
61 1 0 0 0 
62 2 0 0 0 
63 3 0 0 0 
64 4 0 0 0 
6596 6 0 0 0 
6595 5 0 0 0 
6436 6 0 0 0 
6435 5 0 0 0 
5400 6 0 0 0 
5399 5 0 0 0 
71 1 0 0 0 
72 2 0 0 0 
73 3 0 0 0 
74 4 0 0 0 
6586 6 0 0 0 
6585 5 0 0 0 
6196 6 0 0 0 
6195 5 0 0 0 
79 5 0 0 0 
80 6 0 0 0 
81 1 0 0 0 
82 2 0 0 0 
83 3 0 0 0 
84 4 0 0 0 
6576 6 0 0 0 
6575 5 0 0 0 
5508 6 0 0 0 
5507 5 0 0 0 
89 5 0 0 0 
90 6 0 0 0 
91 1 0 0 0 
92 2 0 0 0 
93 3 0 0 0 
94 4 0 0 0 
6566 6 0 0 0 
6565 5 0 0 0 
5498 6 0 0 0 
5497 5 0 0 0 
99 5 0 0 0 
100 6 0 0 0 
101 1 0 0 0 
102 2 0 0 0 
103 3 0 0 0 
104 4 0 0 0 
6556 6 0 0 0 
6555 5 0 0 0 
5488 6 0 0 0 
5487 5 0 0 0 
109 5 0 0 0 
110 6 0 0 0 
111 1 0 0 0 
112 2 0 0 0 
113 3 0 0 0 
114 4 0 0 0 
6546 6 0 0 0 
6545 5 0 0 0 
5478 6 0 0 0 
5477 5 0 0 0 
119 5 0 0 0 
120 6 0 0 0 
181 1 0 0 0 
182 2 0 0 0 
183 3 0 0 0 
184 4 0 0 0 
6476 6 0 0 0 
6475 5 0 0 0 
187 5 0 0 0 
188 6 0 0 0 
5398 6 0 0 0 
5397 5 0 0 0 
191 1 0 0 0 
192 2 0 0 0 
193 3 0 0 0 
194 4 0 0 0 
6466 6 0 0 0 
6465 5 0 0 0 
197 5 0 0 0 
198 6 0 0 0 
199 5 0 0 0 
200 6 0 0 0 
201 1 0 0 0 
202 2 0 0 0 
203 3 0 0 0 
204 4 0 0 0 
6456 6 0 0 0 
6455 5 0 0 0 
207 5 0 0 0 
208 6 0 0 0 
209 5 0 0 0 
210 6 0 0 0 
211 1 0 0 0 
212 2 0 0 0 
213 3 0 0 0 
214 4 0 0 0 
6446 6 0 0 0 
6445 5 0 0 0 
217 5 0 0 0 
218 6 0 0 0 
219 5 0 0 0 
220 6 0 0 0 
221 1 0 0 0 
222 2 0 0 0 
223 3 0 0 0 
224 4 0 0 0 
6426 6 0 0 0 
6425 5 0 0 0 
227 5 0 0 0 
228 6 0 0 0 
229 5 0 0 0 
230 6 0 0 0 
231 1 0 0 0 
232 2 0 0 0 
233 3 0 0 0 
234 4 0 0 0 
6356 6 0 0 0 
6355 5 0 0 0 
237 5 0 0 0 
238 6 0 0 0 
239 5 0 0 0 
240 6 0 0 0 
301 1 0 0 0 
302 2 0 0 0 
303 3 0 0 0 
304 4 0 0 0 
6346 6 0 0 0 
6345 5 0 0 0 
307 5 0 0 0 
308 6 0 0 0 
5396 6 0 0 0 
5395 5 0 0 0 
311 1 0 0 0 
312 2 0 0 0 
313 3 0 0 0 
314 4 0 0 0 
6336 6 0 0 0 
6335 5 0 0 0 
317 5 0 0 0 
318 6 0 0 0 
319 5 0 0 0 
320 6 0 0 0 
321 1 0 0 0 
322 2 0 0 0 
323 3 0 0 0 
324 4 0 0 0 
6326 6 0 0 0 
6325 5 0 0 0 
327 5 0 0 0 
328 6 0 0 0 
329 5 0 0 0 
330 6 0 0 0 
331 1 0 0 0 
332 2 0 0 0 
333 3 0 0 0 
334 4 0 0 0 
6316 6 0 0 0 
6315 5 0 0 0 
337 5 0 0 0 
338 6 0 0 0 
339 5 0 0 0 
340 6 0 0 0 
341 1 0 0 0 
342 2 0 0 0 
343 3 0 0 0 
344 4 0 0 0 
6306 6 0 0 0 
6305 5 0 0 0 
347 5 0 0 0 
348 6 0 0 0 
349 5 0 0 0 
350 6 0 0 0 
351 1 0 0 0 
352 2 0 0 0 
353 3 0 0 0 
354 4 0 0 0 
6236 6 0 0 0 
6235 5 0 0 0 
357 5 0 0 0 
358 6 0 0 0 
359 5 0 0 0 
360 6 0 0 0 
421 1 0 0 0 
422 2 0 0 0 
423 3 0 0 0 
424 4 0 0 0 
6226 6 0 0 0 
6225 5 0 0 0 
427 5 0 0 0 
428 6 0 0 0 
5394 4 0 0 0 
5393 3 0 0 0 
431 1 0 0 0 
432 2 0 0 0 
433 3 0 0 0 
434 4 0 0 0 
6216 6 0 0 0 
6215 5 0 0 0 
437 5 0 0 0 
438 6 0 0 0 
439 5 0 0 0 
440 6 0 0 0 
441 1 0 0 0 
442 2 0 0 0 
443 3 0 0 0 
444 4 0 0 0 
6206 6 0 0 0 
6205 5 0 0 0 
447 5 0 0 0 
448 6 0 0 0 
449 5 0 0 0 
450 6 0 0 0 
451 1 0 0 0 
452 2 0 0 0 
453 3 0 0 0 
454 4 0 0 0 
6186 6 0 0 0 
6185 5 0 0 0 
457 5 0 0 0 
458 6 0 0 0 
459 5 0 0 0 
460 6 0 0 0 
461 1 0 0 0 
462 2 0 0 0 
463 3 0 0 0 
464 4 0 0 0 
6116 6 0 0 0 
6115 5 0 0 0 
467 5 0 0 0 
468 6 0 0 0 
469 5 0 0 0 
470 6 0 0 0 
471 1 0 0 0 
472 2 0 0 0 
473 3 0 0 0 
474 4 0 0 0 
6106 6 0 0 0 
6105 5 0 0 0 
477 5 0 0 0 
478 6 0 0 0 
479 5 0 0 0 
480 6 0 0 0 
541 1 0 0 0 
542 2 0 0 0 
543 3 0 0 0 
544 4 0 0 0 
6096 6 0 0 0 
6095 5 0 0 0 
547 5 0 0 0 
548 6 0 0 0 
5392 2 0 0 0 
5391 1 0 0 0 
551 1 0 0 0 
552 2 0 0 0 
553 3 0 0 0 
554 4 0 0 0 
6086 6 0 0 0 
6085 5 0 0 0 
557 5 0 0 0 
558 6 0 0 0 
559 5 0 0 0 
560 6 0 0 0 
561 1 0 0 0 
562 2 0 0 0 
563 3 0 0 0 
564 4 0 0 0 
6076 6 0 0 0 
6075 5 0 0 0 
567 5 0 0 0 
568 6 0 0 0 
569 5 0 0 0 
570 6 0 0 0 
571 1 0 0 0 
572 2 0 0 0 
573 3 0 0 0 
574 4 0 0 0 
6066 6 0 0 0 
6065 5 0 0 0 
577 5 0 0 0 
578 6 0 0 0 
579 5 0 0 0 
580 6 0 0 0 
581 1 0 0 0 
582 2 0 0 0 
583 3 0 0 0 
584 4 0 0 0 
5518 6 0 0 0 
5517 5 0 0 0 
587 5 0 0 0 
588 6 0 0 0 
589 5 0 0 0 
590 6 0 0 0 
591 1 0 0 0 
592 2 0 0 0 
593 3 0 0 0 
594 4 0 0 0 
5468 6 0 0 0 
5467 5 0 0 0 
597 5 0 0 0 
598 6 0 0 0 
599 5 0 0 0 
600 6 0 0 0 
1261 1 0 0 0 
1262 2 0 0 0 
1263 3 0 0 0 
1264 4 0 0 0 
1265 5 0 0 0 
1266 6 0 0 0 
4318 6 0 0 0 
4317 5 0 0 0 
5390 6 0 0 0 
5389 5 0 0 0 
1271 1 0 0 0 
1272 2 0 0 0 
1273 3 0 0 0 
1274 4 0 0 0 
1275 5 0 0 0 
1276 6 0 0 0 
4308 6 0 0 0 
4307 5 0 0 0 
1279 5 0 0 0 
1280 6 0 0 0 
1281 1 0 0 0 
1282 2 0 0 0 
1283 3 0 0 0 
1284 4 0 0 0 
1285 5 0 0 0 
1286 6 0 0 0 
4298 6 0 0 0 
4297 5 0 0 0 
1289 5 0 0 0 
1290 6 0 0 0 
1291 1 0 0 0 
1292 2 0 0 0 
1293 3 0 0 0 
1294 4 0 0 0 
1295 5 0 0 0 
1296 6 0 0 0 
4288 6 0 0 0 
4287 5 0 0 0 
1299 5 0 0 0 
1300 6 0 0 0 
1301 1 0 0 0 
1302 2 0 0 0 
1303 3 0 0 0 
1304 4 0 0 0 
1305 5 0 0 0 
1306 6 0 0 0 
4278 6 0 0 0 
4277 5 0 0 0 
1309 5 0 0 0 
1310 6 0 0 0 
1311 1 0 0 0 
1312 2 0 0 0 
1313 3 0 0 0 
1314 4 0 0 0 
1315 5 0 0 0 
1316 6 0 0 0 
4268 6 0 0 0 
4267 5 0 0 0 
1319 5 0 0 0 
1320 6 0 0 0 
1381 1 0 0 0 
1382 2 0 0 0 
1383 3 0 0 0 
1384 4 0 0 0 
1385 5 0 0 0 
1386 6 0 0 0 
1387 5 0 0 0 
1388 6 0 0 0 
5388 6 0 0 0 
5387 5 0 0 0 
1391 1 0 0 0 
1392 2 0 0 0 
1393 3 0 0 0 
1394 4 0 0 0 
1395 5 0 0 0 
1396 6 0 0 0 
1397 5 0 0 0 
1398 6 0 0 0 
1399 5 0 0 0 
1400 6 0 0 0 
1401 1 0 0 0 
1402 2 0 0 0 
1403 3 0 0 0 
1404 4 0 0 0 
1405 5 0 0 0 
1406 6 0 0 0 
1407 5 0 0 0 
1408 6 0 0 0 
1409 5 0 0 0 
1410 6 0 0 0 
1411 1 0 0 0 
1412 2 0 0 0 
1413 3 0 0 0 
1414 4 0 0 0 
1415 5 0 0 0 
1416 6 0 0 0 
1417 5 0 0 0 
1418 6 0 0 0 
1419 5 0 0 0 
1420 6 0 0 0 
1421 1 0 0 0 
1422 2 0 0 0 
1423 3 0 0 0 
1424 4 0 0 0 
1425 5 0 0 0 
1426 6 0 0 0 
1427 5 0 0 0 
1428 6 0 0 0 
1429 5 0 0 0 
1430 6 0 0 0 
1431 1 0 0 0 
1432 2 0 0 0 
1433 3 0 0 0 
1434 4 0 0 0 
1435 5 0 0 0 
1436 6 0 0 0 
1437 5 0 0 0 
1438 6 0 0 0 
1439 5 0 0 0 
1440 6 0 0 0 
1501 1 0 0 0 
1502 2 0 0 0 
1503 3 0 0 0 
1504 4 0 0 0 
1505 5 0 0 0 
1506 6 0 0 0 
1507 5 0 0 0 
1508 6 0 0 0 
5386 6 0 0 0 
5385 5 0 0 0 
1511 1 0 0 0 
1512 2 0 0 0 
1513 3 0 0 0 
1514 4 0 0 0 
1515 5 0 0 0 
1516 6 0 0 0 
1517 5 0 0 0 
1518 6 0 0 0 
1519 5 0 0 0 
1520 6 0 0 0 
1521 1 0 0 0 
1522 2 0 0 0 
1523 3 0 0 0 
1524 4 0 0 0 
1525 5 0 0 0 
1526 6 0 0 0 
1527 5 0 0 0 
1528 6 0 0 0 
1529 5 0 0 0 
1530 6 0 0 0 
1531 1 0 0 0 
1532 2 0 0 0 
1533 3 0 0 0 
1534 4 0 0 0 
1535 5 0 0 0 
1536 6 0 0 0 
1537 5 0 0 0 
1538 6 0 0 0 
1539 5 0 0 0 
1540 6 0 0 0 
1541 1 0 0 0 
1542 2 0 0 0 
1543 3 0 0 0 
1544 4 0 0 0 
1545 5 0 0 0 
1546 6 0 0 0 
1547 5 0 0 0 
1548 6 0 0 0 
1549 5 0 0 0 
1550 6 0 0 0 
1551 1 0 0 0 
1552 2 0 0 0 
1553 3 0 0 0 
1554 4 0 0 0 
1555 5 0 0 0 
1556 6 0 0 0 
1557 5 0 0 0 
1558 6 0 0 0 
1559 5 0 0 0 
1560 6 0 0 0 
1621 1 0 0 0 
1622 2 0 0 0 
1623 3 0 0 0 
1624 4 0 0 0 
1625 5 0 0 0 
1626 6 0 0 0 
1627 5 0 0 0 
1628 6 0 0 0 
5384 4 0 0 0 
5383 3 0 0 0 
1631 1 0 0 0 
1632 2 0 0 0 
1633 3 0 0 0 
1634 4 0 0 0 
1635 5 0 0 0 
1636 6 0 0 0 
1637 5 0 0 0 
1638 6 0 0 0 
1639 5 0 0 0 
1640 6 0 0 0 
1641 1 0 0 0 
1642 2 0 0 0 
1643 3 0 0 0 
1644 4 0 0 0 
1645 5 0 0 0 
1646 6 0 0 0 
1647 5 0 0 0 
1648 6 0 0 0 
1649 5 0 0 0 
1650 6 0 0 0 
1651 1 0 0 0 
1652 2 0 0 0 
1653 3 0 0 0 
1654 4 0 0 0 
1655 5 0 0 0 
1656 6 0 0 0 
1657 5 0 0 0 
1658 6 0 0 0 
1659 5 0 0 0 
1660 6 0 0 0 
1661 1 0 0 0 
1662 2 0 0 0 
1663 3 0 0 0 
1664 4 0 0 0 
1665 5 0 0 0 
1666 6 0 0 0 
1667 5 0 0 0 
1668 6 0 0 0 
1669 5 0 0 0 
1670 6 0 0 0 
1671 1 0 0 0 
1672 2 0 0 0 
1673 3 0 0 0 
1674 4 0 0 0 
1675 5 0 0 0 
1676 6 0 0 0 
1677 5 0 0 0 
1678 6 0 0 0 
1679 5 0 0 0 
1680 6 0 0 0 
1741 1 0 0 0 
1742 2 0 0 0 
1743 3 0 0 0 
1744 4 0 0 0 
1745 5 0 0 0 
1746 6 0 0 0 
1747 5 0 0 0 
1748 6 0 0 0 
5382 2 0 0 0 
5381 1 0 0 0 
1751 1 0 0 0 
1752 2 0 0 0 
1753 3 0 0 0 
1754 4 0 0 0 
1755 5 0 0 0 
1756 6 0 0 0 
1757 5 0 0 0 
1758 6 0 0 0 
1759 5 0 0 0 
1760 6 0 0 0 
1761 1 0 0 0 
1762 2 0 0 0 
1763 3 0 0 0 
1764 4 0 0 0 
1765 5 0 0 0 
1766 6 0 0 0 
1767 5 0 0 0 
1768 6 0 0 0 
1769 5 0 0 0 
1770 6 0 0 0 
1771 1 0 0 0 
1772 2 0 0 0 
1773 3 0 0 0 
1774 4 0 0 0 
1775 5 0 0 0 
1776 6 0 0 0 
1777 5 0 0 0 
1778 6 0 0 0 
1779 5 0 0 0 
1780 6 0 0 0 
1781 1 0 0 0 
1782 2 0 0 0 
1783 3 0 0 0 
1784 4 0 0 0 
1785 5 0 0 0 
1786 6 0 0 0 
1787 5 0 0 0 
1788 6 0 0 0 
1789 5 0 0 0 
1790 6 0 0 0 
1791 1 0 0 0 
1792 2 0 0 0 
1793 3 0 0 0 
1794 4 0 0 0 
1795 5 0 0 0 
1796 6 0 0 0 
1797 5 0 0 0 
1798 6 0 0 0 
1799 5 0 0 0 
1800 6 0 0 0 
2461 1 0 0 0 
2462 2 0 0 0 
2463 3 0 0 0 
2464 4 0 0 0 
2465 5 0 0 0 
2466 6 0 0 0 
3118 6 0 0 0 
3117 5 0 0 0 
5380 6 0 0 0 
5379 5 0 0 0 
2471 1 0 0 0 
2472 2 0 0 0 
2473 3 0 0 0 
2474 4 0 0 0 
2475 5 0 0 0 
2476 6 0 0 0 
3108 6 0 0 0 
3107 5 0 0 0 
2479 5 0 0 0 
2480 6 0 0 0 
2481 1 0 0 0 
2482 2 0 0 0 
2483 3 0 0 0 
2484 4 0 0 0 
2485 5 0 0 0 
2486 6 0 0 0 
3098 6 0 0 0 
3097 5 0 0 0 
2489 5 0 0 0 
2490 6 0 0 0 
2491 1 0 0 0 
2492 2 0 0 0 
2493 3 0 0 0 
2494 4 0 0 0 
2495 5 0 0 0 
2496 6 0 0 0 
3088 6 0 0 0 
3087 5 0 0 0 
2499 5 0 0 0 
2500 6 0 0 0 
2501 1 0 0 0 
2502 2 0 0 0 
2503 3 0 0 0 
2504 4 0 0 0 
2505 5 0 0 0 
2506 6 0 0 0 
3078 6 0 0 0 
3077 5 0 0 0 
2509 5 0 0 0 
2510 6 0 0 0 
2511 1 0 0 0 
2512 2 0 0 0 
2513 3 0 0 0 
2514 4 0 0 0 