ITEM: TIMESTEP
0
ITEM: NUMBER OF ATOMS
270
ITEM: BOX BOUNDS xy xz yz pp pp pp
0.0000000000000000e+00 1.2109785835195398e+01 3.9892917597700001e-02
0.0000000000000000e+00 1.2069892917597699e+01 3.9892917597700001e-02
0.0000000000000000e+00 1.2029999999999999e+01 3.9892917597700001e-02
ITEM: ATOMS id type xs ys zs
1 1 0 0 0
2 2 0 0 0
3 3 0.166667 0.166667 0.166667
4 4 0.166667 0.166667 0.166667
5 5 -1.0842e-19 0.166667 0.166667
6 6 -1.0842e-19 0.166667 0.166667
7 5 0.166667 -1.0842e-19 0.166667
8 6 0.166667 -1.0842e-19 0.166667
9 5 0.166667 0.166667 0
10 6 0.166667 0.166667 0
11 1 0 -2.1684e-19 0.333333
12 2 0 -2.1684e-19 0.333333
19 5 0.166667 0.166667 0.333333
20 6 0.166667 0.166667 0.333333
31 1 -2.1684e-19 0.333333 0
32 2 -2.1684e-19 0.333333 0
37 5 0.166667 0.333333 0.166667
38 6 0.166667 0.333333 0.166667
41 1 -2.1684e-19 0.333333 0.333333
42 2 -2.1684e-19 0.333333 0.333333
91 1 0.333333 0 0
92 2 0.333333 0 0
95 5 0.333333 0.166667 0.166667
96 6 0.333333 0.166667 0.166667
101 1 0.333333 -2.1684e-19 0.333333
102 2 0.333333 -2.1684e-19 0.333333
121 1 0.333333 0.333333 0
122 2 0.333333 0.333333 0
131 1 0.333333 0.333333 0.333333
132 2 0.333333 0.333333 0.333333
13 3 0.166667 0.166667 0.5
14 4 0.166667 0.166667 0.5
15 5 0 0.166667 0.5
16 6 0 0.166667 0.5
17 5 0.166667 -4.33681e-19 0.5
18 6 0.166667 -4.33681e-19 0.5
21 1 0 -4.33681e-19 0.666667
22 2 0 -4.33681e-19 0.666667
23 3 0.166667 0.166667 0.833333
24 4 0.166667 0.166667 0.833333
25 5 0 0.166667 0.833333
26 6 0 0.166667 0.833333
27 5 0.166667 -4.33681e-19 0.833333
28 6 0.166667 -4.33681e-19 0.833333
29 5 0.166667 0.166667 0.666667
30 6 0.166667 0.166667 0.666667
47 5 0.166667 0.333333 0.5
48 6 0.166667 0.333333 0.5
51 1 -4.33681e-19 0.333333 0.666667
52 2 -4.33681e-19 0.333333 0.666667
57 5 0.166667 0.333333 0.833333
58 6 0.166667 0.333333 0.833333
105 5 0.333333 0.166667 0.5
106 6 0.333333 0.166667 0.5
111 1 0.333333 -4.33681e-19 0.666667
112 2 0.333333 -4.33681e-19 0.666667
115 5 0.333333 0.166667 0.833333
116 6 0.333333 0.166667 0.833333
141 1 0.333333 0.333333 0.666667
142 2 0.333333 0.333333 0.666667
43 3 0.166667 0.5 0.5
44 4 0.166667 0.5 0.5
45 5 -2.1684e-19 0.5 0.5
46 6 -2.1684e-19 0.5 0.5
59 5 0.166667 0.5 0.666667
60 6 0.166667 0.5 0.666667
135 5 0.333333 0.5 0.5
136 6 0.333333 0.5 0.5
103 3 0.5 0.166667 0.5
104 4 0.5 0.166667 0.5
107 5 0.5 -4.33681e-19 0.5
108 6 0.5 -4.33681e-19 0.5
113 3 0.5 0.166667 0.833333
114 4 0.5 0.166667 0.833333
147 5 0.5 0.333333 0.833333
148 6 0.5 0.333333 0.833333
133 3 0.5 0.5 0.5
134 4 0.5 0.5 0.5
149 5 0.5 0.5 0.666667
150 6 0.5 0.5 0.666667
33 3 0.166667 0.5 0.166667
34 4 0.166667 0.5 0.166667
35 5 -3.25261e-19 0.5 0.166667
36 6 -3.25261e-19 0.5 0.166667
39 5 0.166667 0.5 0
40 6 0.166667 0.5 0
49 5 0.166667 0.5 0.333333
50 6 0.166667 0.5 0.333333
61 1 -4.33681e-19 0.666667 0
62 2 -4.33681e-19 0.666667 0
63 3 0.166667 0.833333 0.166667
64 4 0.166667 0.833333 0.166667
65 5 -1.0842e-19 0.833333 0.166667
66 6 -1.0842e-19 0.833333 0.166667
67 5 0.166667 0.666667 0.166667
68 6 0.166667 0.666667 0.166667
69 5 0.166667 0.833333 0
70 6 0.166667 0.833333 0
71 1 -2.1684e-19 0.666667 0.333333
72 2 -2.1684e-19 0.666667 0.333333
79 5 0.166667 0.833333 0.333333
80 6 0.166667 0.833333 0.333333
125 5 0.333333 0.5 0.166667
126 6 0.333333 0.5 0.166667
151 1 0.333333 0.666667 0
152 2 0.333333 0.666667 0
155 5 0.333333 0.833333 0.166667
156 6 0.333333 0.833333 0.166667
161 1 0.333333 0.666667 0.333333
162 2 0.333333 0.666667 0.333333
123 3 0.5 0.5 0.166667
124 4 0.5 0.5 0.166667
129 5 0.5 0.5 0
130 6 0.5 0.5 0
176 6 0.333333 0.833333 0.833333
175 5 0.333333 0.833333 0.833333
172 2 0.333333 0.666667 0.666667
171 1 0.333333 0.666667 0.666667
53 3 0.166667 0.5 0.833333
54 4 0.166667 0.5 0.833333
55 5 -8.67362e-19 0.5 0.833333
56 6 -8.67362e-19 0.5 0.833333
166 6 0.333333 0.833333 0.5
165 5 0.333333 0.833333 0.5
73 3 0.166667 0.833333 0.5
74 4 0.166667 0.833333 0.5
75 5 -2.1684e-19 0.833333 0.5
76 6 -2.1684e-19 0.833333 0.5
77 5 0.166667 0.666667 0.5
78 6 0.166667 0.666667 0.5
81 1 -4.33681e-19 0.666667 0.666667
82 2 -4.33681e-19 0.666667 0.666667
83 3 0.166667 0.833333 0.833333
84 4 0.166667 0.833333 0.833333
85 5 -1.30104e-18 0.833333 0.833333
86 6 -1.30104e-18 0.833333 0.833333
87 5 0.166667 0.666667 0.833333
88 6 0.166667 0.666667 0.833333
89 5 0.166667 0.833333 0.666667
90 6 0.166667 0.833333 0.666667
146 6 0.333333 0.5 0.833333
145 5 0.333333 0.5 0.833333
143 3 0.5 0.5 0.833333
144 4 0.5 0.5 0.833333
163 3 0.5 0.833333 0.5
164 4 0.5 0.833333 0.5
173 3 0.5 0.833333 0.833333
174 4 0.5 0.833333 0.833333
177 5 0.5 0.666667 0.833333
178 6 0.5 0.666667 0.833333
179 5 0.5 0.833333 0.666667
180 6 0.5 0.833333 0.666667
93 3 0.5 0.166667 0.166667
94 4 0.5 0.166667 0.166667
97 5 0.5 -1.0842e-19 0.166667
98 6 0.5 -1.0842e-19 0.166667
99 5 0.5 0.166667 0
100 6 0.5 0.166667 0
109 5 0.5 0.166667 0.333333
110 6 0.5 0.166667 0.333333
127 5 0.5 0.333333 0.166667
128 6 0.5 0.333333 0.166667
181 1 0.666667 0 0
182 2 0.666667 0 0
183 3 0.833333 0.166667 0.166667
184 4 0.833333 0.166667 0.166667
185 5 0.666667 0.166667 0.166667
186 6 0.666667 0.166667 0.166667
187 5 0.833333 -1.0842e-19 0.166667
188 6 0.833333 -1.0842e-19 0.166667
189 5 0.833333 0.166667 0
190 6 0.833333 0.166667 0
191 1 0.666667 -2.1684e-19 0.333333
192 2 0.666667 -2.1684e-19 0.333333
199 5 0.833333 0.166667 0.333333
200 6 0.833333 0.166667 0.333333
211 1 0.666667 0.333333 0
212 2 0.666667 0.333333 0
217 5 0.833333 0.333333 0.166667
218 6 0.833333 0.333333 0.166667
221 1 0.666667 0.333333 0.333333
222 2 0.666667 0.333333 0.333333
238 6 0.833333 0.333333 0.833333
237 5 0.833333 0.333333 0.833333
232 2 0.666667 0.333333 0.666667
231 1 0.666667 0.333333 0.666667
228 6 0.833333 0.333333 0.5
227 5 0.833333 0.333333 0.5
117 5 0.5 -4.33681e-19 0.833333
118 6 0.5 -4.33681e-19 0.833333
119 5 0.5 0.166667 0.666667
120 6 0.5 0.166667 0.666667
137 5 0.5 0.333333 0.5
138 6 0.5 0.333333 0.5
210 6 0.833333 0.166667 0.666667
209 5 0.833333 0.166667 0.666667
193 3 0.833333 0.166667 0.5
194 4 0.833333 0.166667 0.5
195 5 0.666667 0.166667 0.5
196 6 0.666667 0.166667 0.5
197 5 0.833333 -4.33681e-19 0.5
198 6 0.833333 -4.33681e-19 0.5
201 1 0.666667 -4.33681e-19 0.666667
202 2 0.666667 -4.33681e-19 0.666667
203 3 0.833333 0.166667 0.833333
204 4 0.833333 0.166667 0.833333
205 5 0.666667 0.166667 0.833333
206 6 0.666667 0.166667 0.833333
207 5 0.833333 -4.33681e-19 0.833333
208 6 0.833333 -4.33681e-19 0.833333
223 3 0.833333 0.5 0.5
224 4 0.833333 0.5 0.5
225 5 0.666667 0.5 0.5
240 6 0.833333 0.5 0.666667
239 5 0.833333 0.5 0.666667
226 6 0.666667 0.5 0.5
260 6 0.833333 0.833333 0.333333
259 5 0.833333 0.833333 0.333333
252 2 0.666667 0.666667 0.333333
251 1 0.666667 0.666667 0.333333
139 5 0.5 0.5 0.333333
140 6 0.5 0.5 0.333333
153 3 0.5 0.833333 0.166667
154 4 0.5 0.833333 0.166667
157 5 0.5 0.666667 0.166667
158 6 0.5 0.666667 0.166667
159 5 0.5 0.833333 0
160 6 0.5 0.833333 0
169 5 0.5 0.833333 0.333333
170 6 0.5 0.833333 0.333333
213 3 0.833333 0.5 0.166667
214 4 0.833333 0.5 0.166667
215 5 0.666667 0.5 0.166667
216 6 0.666667 0.5 0.166667
219 5 0.833333 0.5 0
220 6 0.833333 0.5 0
229 5 0.833333 0.5 0.333333
230 6 0.833333 0.5 0.333333
241 1 0.666667 0.666667 0
242 2 0.666667 0.666667 0
243 3 0.833333 0.833333 0.166667
244 4 0.833333 0.833333 0.166667
245 5 0.666667 0.833333 0.166667
246 6 0.666667 0.833333 0.166667
247 5 0.833333 0.666667 0.166667
248 6 0.833333 0.666667 0.166667
249 5 0.833333 0.833333 0
250 6 0.833333 0.833333 0
270 6 0.833333 0.833333 0.666667
269 5 0.833333 0.833333 0.666667
268 6 0.833333 0.666667 0.833333
267 5 0.833333 0.666667 0.833333
266 6 0.666667 0.833333 0.833333
265 5 0.666667 0.833333 0.833333
264 4 0.833333 0.833333 0.833333
263 3 0.833333 0.833333 0.833333
167 5 0.5 0.666667 0.5
168 6 0.5 0.666667 0.5
262 2 0.666667 0.666667 0.666667
261 1 0.666667 0.666667 0.666667
258 6 0.833333 0.666667 0.5
257 5 0.833333 0.666667 0.5
256 6 0.666667 0.833333 0.5
255 5 0.666667 0.833333 0.5
254 4 0.833333 0.833333 0.5
253 3 0.833333 0.833333 0.5
236 6 0.666667 0.5 0.833333
235 5 0.666667 0.5 0.833333
233 3 0.833333 0.5 0.833333
234 4 0.833333 0.5 0.833333
