ITEM: TIMESTEP
0
ITEM: NUMBER OF ATOMS
270
ITEM: BOX BOUNDS xy xz yz pp pp pp
0.0000000000000000e+00 1.2109785835195398e+01 3.9892917597700001e-02
0.0000000000000000e+00 1.2069892917597699e+01 3.9892917597700001e-02
0.0000000000000000e+00 1.2029999999999999e+01 3.9892917597700001e-02
ITEM: ATOMS id type c_dr[1] c_dr[2] c_dr[3] 
1 1 0 0 0 
2 2 0 0 0 
3 3 4.44089e-16 0 0 
4 4 4.44089e-16 0 0 
5 5 1.73472e-18 0 0 
6 6 1.73472e-18 0 0 
7 5 4.44089e-16 1.73472e-18 0 
8 6 4.44089e-16 1.73472e-18 0 
9 5 0 0 0 
10 6 0 0 0 
11 1 0 3.46945e-18 0 
12 2 0 3.46945e-18 0 
19 5 0 0 0 
20 6 0 0 0 
31 1 3.46945e-18 0 0 
32 2 3.46945e-18 0 0 
37 5 4.44089e-16 0 0 
38 6 4.44089e-16 0 0 
41 1 3.46945e-18 0 0 
42 2 3.46945e-18 0 0 
91 1 0 0 0 
92 2 0 0 0 
95 5 0 0 0 
96 6 0 0 0 
101 1 8.88178e-16 3.46945e-18 0 
102 2 8.88178e-16 3.46945e-18 0 
121 1 0 0 0 
122 2 0 0 0 
131 1 8.88178e-16 0 0 
132 2 8.88178e-16 0 0 
13 3 4.44089e-16 0 0 
14 4 4.44089e-16 0 0 
15 5 0 0 0 
16 6 0 0 0 
17 5 4.44089e-16 6.93889e-18 0 
18 6 4.44089e-16 6.93889e-18 0 
21 1 0 6.93889e-18 0 
22 2 0 6.93889e-18 0 
23 3 4.44089e-16 0 0 
24 4 4.44089e-16 0 0 
25 5 0 0 0 
26 6 0 0 0 
27 5 0 6.93889e-18 0 
28 6 0 6.93889e-18 0 
29 5 4.44089e-16 4.44089e-16 0 
30 6 4.44089e-16 4.44089e-16 0 
47 5 0 0 0 
48 6 0 0 0 
51 1 6.93889e-18 0 0 
52 2 6.93889e-18 0 0 
57 5 0 0 0 
58 6 0 0 0 
105 5 0 0 0 
106 6 0 0 0 
111 1 0 6.93889e-18 0 
112 2 0 6.93889e-18 0 
115 5 0 0 0 
116 6 0 0 0 
141 1 0 0 0 
142 2 0 0 0 
43 3 4.44089e-16 0 0 
44 4 4.44089e-16 0 0 
45 5 0 0 0 
46 6 0 0 0 
59 5 4.44089e-16 0 0 
60 6 4.44089e-16 0 0 
135 5 -8.88178e-16 0 0 
136 6 -8.88178e-16 0 0 
103 3 0 0 0 
104 4 0 0 0 
107 5 0 6.93889e-18 0 
108 6 0 6.93889e-18 0 
113 3 0 0 0 
114 4 0 0 0 
147 5 0 0 0 
148 6 0 0 0 
133 3 0 0 0 
134 4 0 0 0 
149 5 -1.77636e-15 0 0 
150 6 -1.77636e-15 0 0 
33 3 4.44089e-16 0 0 
34 4 4.44089e-16 0 0 
35 5 3.46945e-18 0 0 
36 6 3.46945e-18 0 0 
39 5 0 0 0 
40 6 0 0 0 
49 5 0 1.77636e-15 0 
50 6 0 1.77636e-15 0 
61 1 6.93889e-18 0 0 
62 2 6.93889e-18 0 0 
63 3 4.44089e-16 0 0 
64 4 4.44089e-16 0 0 
65 5 6.93889e-18 0 0 
66 6 6.93889e-18 0 0 
67 5 4.44089e-16 0 0 
68 6 4.44089e-16 0 0 
69 5 0 0 0 
70 6 0 0 0 
71 1 1.38778e-17 0 0 
72 2 1.38778e-17 0 0 
79 5 0 0 0 
80 6 0 0 0 
125 5 0 0 0 
126 6 0 0 0 
151 1 0 0 0 
152 2 0 0 0 
155 5 0 0 0 
156 6 0 0 0 
161 1 8.88178e-16 0 0 
162 2 8.88178e-16 0 0 
123 3 -1.77636e-15 0 0 
124 4 -1.77636e-15 0 0 
129 5 0 0 0 
130 6 0 0 0 
176 6 0 0 0 
175 5 0 0 0 
172 2 -8.88178e-16 0 0 
171 1 -8.88178e-16 0 0 
53 3 0 0 0 
54 4 0 0 0 
55 5 1.38778e-17 0 0 
56 6 1.38778e-17 0 0 
166 6 0 0 0 
165 5 0 0 0 
73 3 0 0 0 
74 4 0 0 0 
75 5 1.38778e-17 0 0 
76 6 1.38778e-17 0 0 
77 5 4.44089e-16 0 0 
78 6 4.44089e-16 0 0 
81 1 6.93889e-18 0 0 
82 2 6.93889e-18 0 0 
83 3 0 0 0 
84 4 0 0 0 
85 5 0 0 0 
86 6 0 0 0 
87 5 4.44089e-16 0 0 
88 6 4.44089e-16 0 0 
89 5 0 0 0 
90 6 0 0 0 
146 6 -8.88178e-16 0 0 
145 5 -8.88178e-16 0 0 
143 3 -1.77636e-15 0 0 
144 4 -1.77636e-15 0 0 
163 3 -1.77636e-15 0 0 
164 4 -1.77636e-15 0 0 
173 3 0 0 0 
174 4 0 0 0 
177 5 0 0 0 
178 6 0 0 0 
179 5 0 0 0 
180 6 0 0 0 
93 3 1.77636e-15 0 0 
94 4 1.77636e-15 0 0 
97 5 0 1.73472e-18 0 
98 6 0 1.73472e-18 0 
99 5 0 0 0 
100 6 0 0 0 
109 5 0 0 0 
110 6 0 0 0 
127 5 0 0 0 
128 6 0 0 0 
181 1 0 0 0 
182 2 0 0 0 
183 3 0 0 0 
184 4 0 0 0 
185 5 0 0 0 
186 6 0 0 0 
187 5 0 1.73472e-18 0 
188 6 0 1.73472e-18 0 
189 5 0 0 0 
190 6 0 0 0 
191 1 0 3.46945e-18 0 
192 2 0 3.46945e-18 0 
199 5 0 0 0 
200 6 0 0 0 
211 1 0 0 0 
212 2 0 0 0 
217 5 0 0 0 
218 6 0 0 0 
221 1 0 0 0 
222 2 0 0 0 
238 6 1.77636e-15 0 0 
237 5 1.77636e-15 0 0 
232 2 3.55271e-15 0 0 
231 1 3.55271e-15 0 0 
228 6 0 0 0 
227 5 0 0 0 
117 5 1.77636e-15 6.93889e-18 0 
118 6 1.77636e-15 6.93889e-18 0 
119 5 1.77636e-15 4.44089e-16 0 
120 6 1.77636e-15 4.44089e-16 0 
137 5 0 0 0 
138 6 0 0 0 
210 6 1.77636e-15 4.44089e-16 0 
209 5 1.77636e-15 4.44089e-16 0 
193 3 0 0 0 
194 4 0 0 0 
195 5 0 0 0 
196 6 0 0 0 
197 5 0 6.93889e-18 0 
198 6 0 6.93889e-18 0 
201 1 1.77636e-15 6.93889e-18 0 
202 2 1.77636e-15 6.93889e-18 0 
203 3 0 0 0 
204 4 0 0 0 
205 5 0 0 0 
206 6 0 0 0 
207 5 1.77636e-15 6.93889e-18 0 
208 6 1.77636e-15 6.93889e-18 0 
223 3 0 0 0 
224 4 0 0 0 
225 5 0 0 0 
240 6 1.77636e-15 0 0 
239 5 1.77636e-15 0 0 
226 6 0 0 0 
260 6 1.77636e-15 0 0 
259 5 1.77636e-15 0 0 
252 2 0 0 0 
251 1 0 0 0 
139 5 0 1.77636e-15 0 
140 6 0 1.77636e-15 0 
153 3 0 0 0 
154 4 0 0 0 
157 5 0 0 0 
158 6 0 0 0 
159 5 0 0 0 
160 6 0 0 0 
169 5 0 0 0 
170 6 0 0 0 
213 3 0 0 0 
214 4 0 0 0 
215 5 0 0 0 
216 6 0 0 0 
219 5 0 0 0 
220 6 0 0 0 
229 5 0 1.77636e-15 0 
230 6 0 1.77636e-15 0 
241 1 0 0 0 
242 2 0 0 0 
243 3 0 0 0 
244 4 0 0 0 
245 5 0 0 0 
246 6 0 0 0 
247 5 0 0 0 
248 6 0 0 0 
249 5 0 0 0 
250 6 0 0 0 
270 6 1.77636e-15 0 0 
269 5 1.77636e-15 0 0 
268 6 1.77636e-15 0 0 
267 5 1.77636e-15 0 0 
266 6 3.55271e-15 0 0 
265 5 3.55271e-15 0 0 
264 4 3.55271e-15 0 0 
263 3 3.55271e-15 0 0 
167 5 0 0 0 
168 6 0 0 0 
262 2 1.77636e-15 0 0 
261 1 1.77636e-15 0 0 
258 6 1.77636e-15 0 0 
257 5 1.77636e-15 0 0 
256 6 0 0 0 
255 5 0 0 0 
254 4 0 0 0 
253 3 0 0 0 
236 6 1.77636e-15 0 0 
235 5 1.77636e-15 0 0 
233 3 1.77636e-15 0 0 
234 4 1.77636e-15 0 0 
