ITEM: TIMESTEP
0
ITEM: NUMBER OF ATOMS
10
ITEM: BOX BOUNDS xy xz yz pp pp ss
0.0000000000000000e+00 4.0365952783983996e+00 1.3297639199200000e-02
0.0000000000000000e+00 4.0232976391991997e+00 1.3297639199200000e-02
-1.0029412042728328e-03 2.0060029412042728e+00 1.3297639199200000e-02
ITEM: ATOMS id type xs ys zs
1 1 3.30248e-07 3.31347e-07 0.0001
2 2 3.30248e-07 3.31347e-07 0.0001
3 3 0.5 0.5 0.9999
4 4 0.5 0.5 0.9999
7 5 0.5 1 0.9999
8 6 0.5 1 0.9999
5 5 1 0.5 0.9999
6 6 1 0.5 0.9999
9 5 0.5 0.5 0.0001
10 6 0.5 0.5 0.0001
ITEM: TIMESTEP
100
ITEM: NUMBER OF ATOMS
10
ITEM: BOX BOUNDS xy xz yz pp pp ss
0.0000000000000000e+00 4.0365952783983996e+00 1.3297639199200000e-02
0.0000000000000000e+00 4.0232976391991997e+00 1.3297639199200000e-02
-1.0029412042728328e-03 2.0060029412042728e+00 1.3297639199200000e-02
ITEM: ATOMS id type xs ys zs
1 1 0.000174263 0.000174875 0.0485879
2 2 0.000358706 0.000359929 0.0236496
3 3 0.499404 0.499402 0.918935
4 4 0.499395 0.499392 0.955775
7 5 0.499937 0.999454 0.99898
8 6 0.500059 0.999623 0.968344
5 5 0.999456 0.499937 0.998982
6 6 0.999624 0.500059 0.968347
9 5 0.501009 0.501012 0.0355892
10 6 0.501212 0.501216 0.0959287
ITEM: TIMESTEP
200
ITEM: NUMBER OF ATOMS
10
ITEM: BOX BOUNDS xy xz yz pp pp ss
0.0000000000000000e+00 4.0365952783983996e+00 1.3297639199200000e-02
0.0000000000000000e+00 4.0232976391991997e+00 1.3297639199200000e-02
-1.0029412042728328e-03 2.0060029412042728e+00 1.3297639199200000e-02
ITEM: ATOMS id type xs ys zs
1 1 0.000306628 0.000307694 0.0729684
2 2 0.000502269 0.000503981 0.046965
3 3 0.498861 0.498857 0.903607
4 4 0.498978 0.498974 0.944005
7 5 0.499844 0.999572 0.986293
8 6 0.499948 1.00019 0.955101
5 5 0.999574 0.499844 0.986296
6 6 1.00019 0.499948 0.955105
9 5 0.501444 0.501449 0.0431662
10 6 0.501476 0.50148 0.106071
ITEM: TIMESTEP
300
ITEM: NUMBER OF ATOMS
10
ITEM: BOX BOUNDS xy xz yz pp pp ss
0.0000000000000000e+00 4.0365952783983996e+00 1.3297639199200000e-02
0.0000000000000000e+00 4.0232976391991997e+00 1.3297639199200000e-02
-1.0029412042728328e-03 2.0060029412042728e+00 1.3297639199200000e-02
ITEM: ATOMS id type xs ys zs
1 1 0.000431051 0.000432539 0.092529
2 2 0.00062683 0.00062896 0.0655798
3 3 0.498056 0.49805 0.893448
4 4 0.498453 0.498448 0.938083
7 5 0.499787 1.00011 0.974924
8 6 0.499906 1.00146 0.944269
5 5 1.00011 0.499787 0.974927
6 6 1.00146 0.499905 0.944273
9 5 0.501762 0.501768 0.0462298
10 6 0.501659 0.501665 0.111609
ITEM: TIMESTEP
400
ITEM: NUMBER OF ATOMS
10
ITEM: BOX BOUNDS xy xz yz pp pp ss
0.0000000000000000e+00 4.0365952783983996e+00 1.3297639199200000e-02
0.0000000000000000e+00 4.0232976391991997e+00 1.3297639199200000e-02
-1.0029412042728328e-03 2.0060029412042728e+00 1.3297639199200000e-02
ITEM: ATOMS id type xs ys zs
1 1 0.000491532 0.000493219 0.106299
2 2 0.00068381 0.000686124 0.0786712
3 3 0.496839 0.496829 0.88652
4 4 0.497723 0.497716 0.933857
7 5 0.49991 1.00115 0.96747
8 6 0.500049 1.00364 0.937312
5 5 1.00115 0.49991 0.967474
6 6 1.00363 0.500049 0.937316
9 5 0.501975 0.501982 0.0471582
10 6 0.501751 0.501757 0.114292
ITEM: TIMESTEP
500
ITEM: NUMBER OF ATOMS
10
ITEM: BOX BOUNDS xy xz yz pp pp ss
0.0000000000000000e+00 4.0365952783983996e+00 1.3297639199200000e-02
0.0000000000000000e+00 4.0232976391991997e+00 1.3297639199200000e-02
-1.0029412042728328e-03 2.0060029412042728e+00 1.3297639199200000e-02
ITEM: ATOMS id type xs ys zs
1 1 0.000439941 0.000441447 0.114236
2 2 0.000632849 0.000634979 0.0863589
3 3 0.495332 0.495317 0.882811
4 4 0.496841 0.496831 0.930579
7 5 0.500209 1.00247 0.963695
8 6 0.500345 1.00634 0.933692
5 5 1.00246 0.500209 0.963699
6 6 1.00632 0.500346 0.933697
9 5 0.502103 0.50211 0.0473076
10 6 0.501764 0.50177 0.115694
ITEM: TIMESTEP
600
ITEM: NUMBER OF ATOMS
10
ITEM: BOX BOUNDS xy xz yz pp pp ss
0.0000000000000000e+00 4.0365952783983996e+00 1.3297639199200000e-02
0.0000000000000000e+00 4.0232976391991997e+00 1.3297639199200000e-02
-1.0029412042728328e-03 2.0060029412042728e+00 1.3297639199200000e-02
ITEM: ATOMS id type xs ys zs
1 1 0.000185735 0.000186374 0.120144
2 2 0.000390346 0.000391644 0.0921336
3 3 0.492684 0.492661 0.880303
4 4 0.49528 0.495265 0.928911
7 5 0.500886 1.0049 0.960884
8 6 0.500985 1.01116 0.93127
5 5 1.00488 0.500888 0.96089
6 6 1.01112 0.500987 0.931274
9 5 0.50224 0.502247 0.0470512
10 6 0.501733 0.501739 0.115904
ITEM: TIMESTEP
700
ITEM: NUMBER OF ATOMS
10
ITEM: BOX BOUNDS xy xz yz pp pp ss
0.0000000000000000e+00 4.0365952783983996e+00 1.3297639199200000e-02
0.0000000000000000e+00 4.0232976391991997e+00 1.3297639199200000e-02
-1.0029412042728328e-03 2.0060029412042728e+00 1.3297639199200000e-02
ITEM: ATOMS id type xs ys zs
1 1 -0.000362281 -0.00036346 0.122956
2 2 -0.000127733 -0.000128148 0.0950161
3 3 0.488953 0.488919 0.880108
4 4 0.4931 0.493079 0.928461
7 5 0.501917 1.00831 0.959414
8 6 0.50191 1.0178 0.930472
5 5 1.00829 0.501922 0.959423
6 6 1.01775 0.501916 0.930478
9 5 0.502362 0.50237 0.0460185
10 6 0.501649 0.501654 0.114554
ITEM: TIMESTEP
800
ITEM: NUMBER OF ATOMS
10
ITEM: BOX BOUNDS xy xz yz pp pp ss
0.0000000000000000e+00 4.0365952783983996e+00 1.3297639199200000e-02
0.0000000000000000e+00 4.0232976391991997e+00 1.3297639199200000e-02
9.0324748454682663e-02 1.9243255303819293e+00 1.3297639199200000e-02
ITEM: ATOMS id type xs ys zs
3 3 0.483217 0.483172 0.916279
4 4 0.48982 0.489794 0.967244
5 5 0.0136435 0.503458 0.999365
6 6 0.0277414 0.503192 0.969315
7 5 0.503448 0.013682 0.999347
8 6 0.503183 0.0278143 0.969303
9 5 0.502668 0.502675 -0.00268538
10 6 0.501688 0.501692 0.0705799
1 1 0.998643 0.998638 0.0850175
2 2 0.998949 0.998946 0.0549191
ITEM: TIMESTEP
900
ITEM: NUMBER OF ATOMS
10
ITEM: BOX BOUNDS xy xz yz pp pp ss
0.0000000000000000e+00 4.0365952783983996e+00 1.3297639199200000e-02
0.0000000000000000e+00 4.0232976391991997e+00 1.3297639199200000e-02
9.0324748454682663e-02 1.9243255303819293e+00 1.3297639199200000e-02
ITEM: ATOMS id type xs ys zs
3 3 0.478398 0.47835 0.921769
4 4 0.48734 0.487315 0.969435
5 5 0.0191455 0.505042 1.00015
6 6 0.03676 0.504378 0.971844
7 5 0.505029 0.0191911 1.00013
8 6 0.504365 0.0368404 0.971825
9 5 0.502903 0.502908 -0.00743098
10 6 0.501811 0.501814 0.0635469
1 1 0.997277 0.99727 0.082366
2 2 0.997671 0.997664 0.0530323
ITEM: TIMESTEP
1000
ITEM: NUMBER OF ATOMS
10
ITEM: BOX BOUNDS xy xz yz pp pp ss
0.0000000000000000e+00 4.0365952783983996e+00 1.3297639199200000e-02
0.0000000000000000e+00 4.0232976391991997e+00 1.3297639199200000e-02
9.0324748454682663e-02 1.9243255303819293e+00 1.3297639199200000e-02
ITEM: ATOMS id type xs ys zs
3 3 0.474974 0.474929 0.927489
4 4 0.485738 0.485716 0.972659
5 5 0.0235345 0.506219 1.00209
6 6 0.0436144 0.505184 0.975251
7 5 0.506204 0.0235804 1.00206
8 6 0.50517 0.0436922 0.975225
9 5 0.503254 0.503257 -0.0124163
10 6 0.502173 0.502175 0.056016
1 1 0.995679 0.995668 0.0780266
2 2 0.996169 0.99616 0.0494147
ITEM: TIMESTEP
1100
ITEM: NUMBER OF ATOMS
10
ITEM: BOX BOUNDS xy xz yz pp pp ss
0.0000000000000000e+00 4.0365952783983996e+00 1.3297639199200000e-02
0.0000000000000000e+00 4.0232976391991997e+00 1.3297639199200000e-02
9.0324748454682663e-02 1.9243255303819293e+00 1.3297639199200000e-02
ITEM: ATOMS id type xs ys zs
3 3 0.473546 0.473504 0.930985
4 4 0.485223 0.485203 0.974372
5 5 0.0258826 0.506752 1.00393
6 6 0.0469894 0.50556 0.977658
7 5 0.506736 0.025926 1.00389
8 6 0.505545 0.047062 0.977629
9 5 0.503602 0.503605 -0.0155701
10 6 0.502585 0.502587 0.0515862
1 1 0.994538 0.994526 0.0746665
2 2 0.995109 0.995099 0.0465211
ITEM: TIMESTEP
1200
ITEM: NUMBER OF ATOMS
10
ITEM: BOX BOUNDS xy xz yz pp pp ss
0.0000000000000000e+00 4.0365952783983996e+00 1.3297639199200000e-02
0.0000000000000000e+00 4.0232976391991997e+00 1.3297639199200000e-02
9.0324748454682663e-02 1.9243255303819293e+00 1.3297639199200000e-02
ITEM: ATOMS id type xs ys zs
3 3 0.472896 0.472857 0.93304
4 4 0.485062 0.485044 0.975195
5 5 0.0271643 0.507018 1.00528
6 6 0.0487951 0.505768 0.979225
7 5 0.507002 0.0272051 1.00524
8 6 0.505753 0.0488631 0.979195
9 5 0.50391 0.503913 -0.0173552
10 6 0.502944 0.502946 0.049126
1 1 0.993735 0.993722 0.0723166
2 2 0.994365 0.994354 0.044456
ITEM: TIMESTEP
1300
ITEM: NUMBER OF ATOMS
10
ITEM: BOX BOUNDS xy xz yz pp pp ss
0.0000000000000000e+00 4.0365952783983996e+00 1.3297639199200000e-02
0.0000000000000000e+00 4.0232976391991997e+00 1.3297639199200000e-02
9.0324748454682663e-02 1.9243255303819293e+00 1.3297639199200000e-02
ITEM: ATOMS id type xs ys zs
3 3 0.472435 0.4724 0.934945
4 4 0.484994 0.484977 0.976461
5 5 0.0283222 0.507245 1.00668
6 6 0.0503817 0.505964 0.980822
7 5 0.50723 0.0283596 1.00664
8 6 0.505949 0.0504441 0.980791
9 5 0.504309 0.504313 -0.0189677
10 6 0.5034 0.503402 0.0467483
1 1 0.992882 0.992869 0.0699474
2 2 0.993581 0.99357 0.0423187
ITEM: TIMESTEP
1400
ITEM: NUMBER OF ATOMS
10
ITEM: BOX BOUNDS xy xz yz pp pp ss
0.0000000000000000e+00 4.0365952783983996e+00 1.3297639199200000e-02
0.0000000000000000e+00 4.0232976391991997e+00 1.3297639199200000e-02
9.0324748454682663e-02 1.9243255303819293e+00 1.3297639199200000e-02
ITEM: ATOMS id type xs ys zs
3 3 0.47225 0.472217 0.935952
4 4 0.485015 0.485 0.976832
5 5 0.0289027 0.507359 1.00744
6 6 0.0511667 0.506075 0.981641
7 5 0.507344 0.0289377 1.0074
8 6 0.506061 0.051225 0.98161
9 5 0.50458 0.504584 -0.0197383
10 6 0.503702 0.503705 0.0456775
1 1 0.992361 0.992348 0.0686081
2 2 0.993103 0.993093 0.0411176
ITEM: TIMESTEP
1500
ITEM: NUMBER OF ATOMS
10
ITEM: BOX BOUNDS xy xz yz pp pp ss
0.0000000000000000e+00 4.0365952783983996e+00 1.3297639199200000e-02
0.0000000000000000e+00 4.0232976391991997e+00 1.3297639199200000e-02
9.0324748454682663e-02 1.9243255303819293e+00 1.3297639199200000e-02
ITEM: ATOMS id type xs ys zs
3 3 0.472127 0.472096 0.936738
4 4 0.485032 0.485017 0.977279
5 5 0.0293368 0.507444 1.00802
6 6 0.0517516 0.506161 0.982279
7 5 0.50743 0.0293694 1.00798
8 6 0.506147 0.0518062 0.98225
9 5 0.504826 0.50483 -0.0202902
10 6 0.503973 0.503976 0.044849
1 1 0.991904 0.991892 0.0675363
2 2 0.992683 0.992672 0.0401309
ITEM: TIMESTEP
1600
ITEM: NUMBER OF ATOMS
10
ITEM: BOX BOUNDS xy xz yz pp pp ss
0.0000000000000000e+00 4.0365952783983996e+00 1.3297639199200000e-02
0.0000000000000000e+00 4.0232976391991997e+00 1.3297639199200000e-02
9.0324748454682663e-02 1.9243255303819293e+00 1.3297639199200000e-02
ITEM: ATOMS id type xs ys zs
3 3 0.472072 0.472042 0.937144
4 4 0.485055 0.485041 0.97747
5 5 0.0295708 0.507489 1.00832
6 6 0.0520563 0.506208 0.982603
7 5 0.507475 0.0296018 1.00828
8 6 0.506195 0.0521083 0.982575
9 5 0.504974 0.504979 -0.0205737
10 6 0.504132 0.504136 0.0444402
1 1 0.991654 0.991643 0.0669971
2 2 0.992454 0.992444 0.0396434
ITEM: TIMESTEP
1700
ITEM: NUMBER OF ATOMS
10
ITEM: BOX BOUNDS xy xz yz pp pp ss
0.0000000000000000e+00 4.0365952783983996e+00 1.3297639199200000e-02
0.0000000000000000e+00 4.0232976391991997e+00 1.3297639199200000e-02
9.0324748454682663e-02 1.9243255303819293e+00 1.3297639199200000e-02
ITEM: ATOMS id type xs ys zs
3 3 0.472029 0.472001 0.937508
4 4 0.485082 0.485069 0.977661
5 5 0.0297834 0.50753 1.00859
6 6 0.0523378 0.506255 0.9829
7 5 0.507517 0.0298124 1.00856
8 6 0.506243 0.0523866 0.982872
9 5 0.505124 0.505129 -0.0208158
10 6 0.504295 0.5043 0.0440744
1 1 0.991406 0.991396 0.0665014
2 2 0.992227 0.992218 0.0391891
ITEM: TIMESTEP
1800
ITEM: NUMBER OF ATOMS
10
ITEM: BOX BOUNDS xy xz yz pp pp ss
0.0000000000000000e+00 4.0365952783983996e+00 1.3297639199200000e-02
0.0000000000000000e+00 4.0232976391991997e+00 1.3297639199200000e-02
9.0324748454682663e-02 1.9243255303819293e+00 1.3297639199200000e-02
ITEM: ATOMS id type xs ys zs
3 3 0.472008 0.471981 0.937715
4 4 0.485104 0.485097 0.977742
5 5 0.0299069 0.507554 1.00874
6 6 0.0524938 0.506284 0.983058
7 5 0.507542 0.0299344 1.00871
8 6 0.506272 0.0525381 0.983031
9 5 0.505217 0.505223 -0.0209525
10 6 0.504394 0.5044 0.0438794
1 1 0.991252 0.991242 0.0662183
2 2 0.992085 0.992076 0.0389323
ITEM: TIMESTEP
1900
ITEM: NUMBER OF ATOMS
10
ITEM: BOX BOUNDS xy xz yz pp pp ss
0.0000000000000000e+00 4.0365952783983996e+00 1.3297639199200000e-02
0.0000000000000000e+00 4.0232976391991997e+00 1.3297639199200000e-02
9.0324748454682663e-02 1.9243255303819293e+00 1.3297639199200000e-02
ITEM: ATOMS id type xs ys zs
3 3 0.471995 0.471969 0.937851
4 4 0.485112 0.485102 0.977843
5 5 0.0299923 0.507571 1.00884
6 6 0.0526076 0.506303 0.983171
7 5 0.507559 0.0300186 1.00881
8 6 0.506292 0.052651 0.983145
9 5 0.505285 0.505291 -0.0210435
10 6 0.504467 0.504472 0.0437318
1 1 0.991147 0.991137 0.0660357
2 2 0.99199 0.991982 0.0387643
ITEM: TIMESTEP
2000
ITEM: NUMBER OF ATOMS
10
ITEM: BOX BOUNDS xy xz yz pp pp ss
0.0000000000000000e+00 4.0365952783983996e+00 1.3297639199200000e-02
0.0000000000000000e+00 4.0232976391991997e+00 1.3297639199200000e-02
9.0324748454682663e-02 1.9243255303819293e+00 1.3297639199200000e-02
ITEM: ATOMS id type xs ys zs
3 3 0.471986 0.471964 0.937946
4 4 0.485122 0.485108 0.977903
5 5 0.0300532 0.507583 1.00891
6 6 0.0526852 0.506317 0.983248
7 5 0.507572 0.0300781 1.00888
8 6 0.506306 0.052728 0.983222
9 5 0.505336 0.505342 -0.0211057
10 6 0.50452 0.504525 0.0436346
1 1 0.991067 0.991058 0.0659046
2 2 0.991918 0.99191 0.0386441
ITEM: TIMESTEP
2100
ITEM: NUMBER OF ATOMS
10
ITEM: BOX BOUNDS xy xz yz pp pp ss
0.0000000000000000e+00 4.0365952783983996e+00 1.3297639199200000e-02
0.0000000000000000e+00 4.0232976391991997e+00 1.3297639199200000e-02
9.0324748454682663e-02 1.9243255303819293e+00 1.3297639199200000e-02
ITEM: ATOMS id type xs ys zs
3 3 0.471981 0.471957 0.938023
4 4 0.485127 0.48512 0.977944
5 5 0.0301012 0.507592 1.00896
6 6 0.0527488 0.506328 0.983307
7 5 0.507582 0.0301252 1.00893
8 6 0.506318 0.0527883 0.983283
9 5 0.505376 0.505383 -0.021154
10 6 0.504564 0.50457 0.0435598
1 1 0.991003 0.990994 0.0658042
2 2 0.991859 0.991852 0.0385518
ITEM: TIMESTEP
2200
ITEM: NUMBER OF ATOMS
10
ITEM: BOX BOUNDS xy xz yz pp pp ss
0.0000000000000000e+00 4.0365952783983996e+00 1.3297639199200000e-02
0.0000000000000000e+00 4.0232976391991997e+00 1.3297639199200000e-02
9.0324748454682663e-02 1.9243255303819293e+00 1.3297639199200000e-02
ITEM: ATOMS id type xs ys zs
3 3 0.471976 0.471954 0.93808
4 4 0.485133 0.485127 0.977978
5 5 0.0301387 0.5076 1.009
6 6 0.0527972 0.506337 0.983352
7 5 0.507589 0.0301618 1.00897
8 6 0.506327 0.0528345 0.983329
9 5 0.505409 0.505415 -0.0211909
10 6 0.504598 0.504604 0.0435027
1 1 0.990952 0.990944 0.065729
2 2 0.991813 0.991806 0.038483
ITEM: TIMESTEP
2300
ITEM: NUMBER OF ATOMS
10
ITEM: BOX BOUNDS xy xz yz pp pp ss
0.0000000000000000e+00 4.0365952783983996e+00 1.3297639199200000e-02
0.0000000000000000e+00 4.0232976391991997e+00 1.3297639199200000e-02
9.0324748454682663e-02 1.9243255303819293e+00 1.3297639199200000e-02
ITEM: ATOMS id type xs ys zs
3 3 0.471973 0.471952 0.938122
4 4 0.485141 0.48513 0.978002
5 5 0.0301676 0.507605 1.00903
6 6 0.0528332 0.506344 0.983385
7 5 0.507596 0.0301895 1.00901
8 6 0.506335 0.0528705 0.983363
9 5 0.505435 0.505441 -0.0212184
10 6 0.504625 0.504631 0.0434601
1 1 0.990913 0.990906 0.0656736
2 2 0.991777 0.991772 0.0384322
ITEM: TIMESTEP
2400
ITEM: NUMBER OF ATOMS
10
ITEM: BOX BOUNDS xy xz yz pp pp ss
0.0000000000000000e+00 4.0365952783983996e+00 1.3297639199200000e-02
0.0000000000000000e+00 4.0232976391991997e+00 1.3297639199200000e-02
9.0324748454682663e-02 1.9243255303819293e+00 1.3297639199200000e-02
ITEM: ATOMS id type xs ys zs
3 3 0.471972 0.471952 0.93815
4 4 0.485144 0.485135 0.978018
5 5 0.0301864 0.507609 1.00905
6 6 0.0528577 0.506349 0.983407
7 5 0.5076 0.0302077 1.00903
8 6 0.50634 0.0528931 0.983385
9 5 0.505452 0.505459 -0.0212359
10 6 0.504643 0.504649 0.0434329
1 1 0.990887 0.990881 0.065638
2 2 0.991754 0.991749 0.0383997
ITEM: TIMESTEP
2500
ITEM: NUMBER OF ATOMS
10
ITEM: BOX BOUNDS xy xz yz pp pp ss
0.0000000000000000e+00 4.0365952783983996e+00 1.3297639199200000e-02
0.0000000000000000e+00 4.0232976391991997e+00 1.3297639199200000e-02
9.0324748454682663e-02 1.9243255303819293e+00 1.3297639199200000e-02
ITEM: ATOMS id type xs ys zs
3 3 0.471971 0.471951 0.938171
4 4 0.485147 0.485137 0.97803
5 5 0.0302003 0.507612 1.00907
6 6 0.0528752 0.506353 0.983422
7 5 0.507603 0.030221 1.00904
8 6 0.506344 0.0529101 0.983401
9 5 0.505464 0.505471 -0.0212483
10 6 0.504657 0.504663 0.0434133
1 1 0.990867 0.990861 0.0656105
2 2 0.991735 0.991731 0.0383746
ITEM: TIMESTEP
2600
ITEM: NUMBER OF ATOMS
10
ITEM: BOX BOUNDS xy xz yz pp pp ss
0.0000000000000000e+00 4.0365952783983996e+00 1.3297639199200000e-02
0.0000000000000000e+00 4.0232976391991997e+00 1.3297639199200000e-02
9.0324748454682663e-02 1.9243255303819293e+00 1.3297639199200000e-02
ITEM: ATOMS id type xs ys zs
3 3 0.47197 0.471951 0.938188
4 4 0.485151 0.485139 0.97804
5 5 0.0302127 0.507615 1.00908
6 6 0.0528904 0.506356 0.983436
7 5 0.507606 0.0302326 1.00905
8 6 0.506348 0.052925 0.983414
9 5 0.505476 0.505483 -0.0212594
10 6 0.504669 0.504675 0.0433961
1 1 0.990849 0.990843 0.0655876
2 2 0.991719 0.991715 0.0383535
ITEM: TIMESTEP
2700
ITEM: NUMBER OF ATOMS
10
ITEM: BOX BOUNDS xy xz yz pp pp ss
0.0000000000000000e+00 4.0365952783983996e+00 1.3297639199200000e-02
0.0000000000000000e+00 4.0232976391991997e+00 1.3297639199200000e-02
9.0324748454682663e-02 1.9243255303819293e+00 1.3297639199200000e-02
ITEM: ATOMS id type xs ys zs
3 3 0.47197 0.47195 0.938197
4 4 0.485151 0.485142 0.978045
5 5 0.0302187 0.507616 1.00908
6 6 0.0528987 0.506358 0.983442
7 5 0.507607 0.0302382 1.00906
8 6 0.50635 0.0529316 0.983421
9 5 0.505481 0.505488 -0.0212646
10 6 0.504674 0.504681 0.0433877
1 1 0.99084 0.990835 0.0655763
2 2 0.991711 0.991707 0.0383431
ITEM: TIMESTEP
2800
ITEM: NUMBER OF ATOMS
10
ITEM: BOX BOUNDS xy xz yz pp pp ss
0.0000000000000000e+00 4.0365952783983996e+00 1.3297639199200000e-02
0.0000000000000000e+00 4.0232976391991997e+00 1.3297639199200000e-02
9.0324748454682663e-02 1.9243255303819293e+00 1.3297639199200000e-02
ITEM: ATOMS id type xs ys zs
3 3 0.471969 0.47195 0.938207
4 4 0.485153 0.485143 0.978051
5 5 0.0302264 0.507617 1.00909
6 6 0.0529084 0.50636 0.98345
7 5 0.507609 0.0302454 1.00907
8 6 0.506352 0.0529406 0.98343
9 5 0.505488 0.505496 -0.0212715
10 6 0.504682 0.504689 0.0433771
1 1 0.990829 0.990824 0.065563
2 2 0.991701 0.991697 0.038331
ITEM: TIMESTEP
2900
ITEM: NUMBER OF ATOMS
10
ITEM: BOX BOUNDS xy xz yz pp pp ss
0.0000000000000000e+00 4.0365952783983996e+00 1.3297639199200000e-02
0.0000000000000000e+00 4.0232976391991997e+00 1.3297639199200000e-02
9.0324748454682663e-02 1.9243255303819293e+00 1.3297639199200000e-02
ITEM: ATOMS id type xs ys zs
3 3 0.471969 0.47195 0.938214
4 4 0.485153 0.485145 0.978054
5 5 0.0302312 0.507618 1.0091
6 6 0.0529147 0.506361 0.983455
7 5 0.50761 0.0302497 1.00907
8 6 0.506353 0.0529458 0.983435
9 5 0.505493 0.5055 -0.0212756
10 6 0.504687 0.504693 0.0433707
1 1 0.990822 0.990817 0.0655547
2 2 0.991694 0.991691 0.0383234
ITEM: TIMESTEP
3000
ITEM: NUMBER OF ATOMS
10
ITEM: BOX BOUNDS xy xz yz pp pp ss
0.0000000000000000e+00 4.0365952783983996e+00 1.3297639199200000e-02
0.0000000000000000e+00 4.0232976391991997e+00 1.3297639199200000e-02
9.0324748454682663e-02 1.9243255303819293e+00 1.3297639199200000e-02
ITEM: ATOMS id type xs ys zs
3 3 0.471969 0.47195 0.938219
4 4 0.485154 0.485146 0.978057
5 5 0.0302352 0.507619 1.0091
6 6 0.0529199 0.506362 0.983458
7 5 0.507611 0.0302533 1.00907
8 6 0.506354 0.0529501 0.983439
9 5 0.505497 0.505504 -0.021279
10 6 0.50469 0.504697 0.0433654
1 1 0.990816 0.990812 0.0655482
2 2 0.991689 0.991686 0.0383177
ITEM: TIMESTEP
3100
ITEM: NUMBER OF ATOMS
10
ITEM: BOX BOUNDS xy xz yz pp pp ss
0.0000000000000000e+00 4.0365952783983996e+00 1.3297639199200000e-02
0.0000000000000000e+00 4.0232976391991997e+00 1.3297639199200000e-02
9.0324748454682663e-02 1.9243255303819293e+00 1.3297639199200000e-02
ITEM: ATOMS id type xs ys zs
3 3 0.471969 0.47195 0.938222
4 4 0.485155 0.485146 0.978059
5 5 0.0302378 0.507619 1.0091
6 6 0.0529229 0.506362 0.983461
7 5 0.507612 0.0302555 1.00908
8 6 0.506355 0.0529532 0.983442
9 5 0.505499 0.505506 -0.0212812
10 6 0.504693 0.5047 0.0433621
1 1 0.990813 0.990809 0.0655439
2 2 0.991686 0.991683 0.0383137
ITEM: TIMESTEP
3200
ITEM: NUMBER OF ATOMS
10
ITEM: BOX BOUNDS xy xz yz pp pp ss
0.0000000000000000e+00 4.0365952783983996e+00 1.3297639199200000e-02
0.0000000000000000e+00 4.0232976391991997e+00 1.3297639199200000e-02
9.0324748454682663e-02 1.9243255303819293e+00 1.3297639199200000e-02
ITEM: ATOMS id type xs ys zs
3 3 0.471969 0.47195 0.938225
4 4 0.485155 0.485146 0.978061
5 5 0.0302397 0.50762 1.0091
6 6 0.0529254 0.506363 0.983462
7 5 0.507613 0.030257 1.00908
8 6 0.506356 0.0529549 0.983444
9 5 0.505501 0.505508 -0.0212826
10 6 0.504695 0.504701 0.0433598
1 1 0.99081 0.990806 0.0655408
2 2 0.991683 0.991681 0.0383109
ITEM: TIMESTEP
3300
ITEM: NUMBER OF ATOMS
10
ITEM: BOX BOUNDS xy xz yz pp pp ss
0.0000000000000000e+00 4.0365952783983996e+00 1.3297639199200000e-02
0.0000000000000000e+00 4.0232976391991997e+00 1.3297639199200000e-02
9.0324748454682663e-02 1.9243255303819293e+00 1.3297639199200000e-02
ITEM: ATOMS id type xs ys zs
3 3 0.471969 0.471951 0.938227
4 4 0.485155 0.485147 0.978062
5 5 0.0302413 0.50762 1.0091
6 6 0.0529274 0.506363 0.983464
7 5 0.507613 0.0302583 1.00908
8 6 0.506356 0.0529565 0.983445
9 5 0.505502 0.505509 -0.0212839
10 6 0.504696 0.504703 0.0433578
1 1 0.990807 0.990804 0.0655383
2 2 0.991681 0.991679 0.0383085
ITEM: TIMESTEP
3400
ITEM: NUMBER OF ATOMS
10
ITEM: BOX BOUNDS xy xz yz pp pp ss
0.0000000000000000e+00 4.0365952783983996e+00 1.3297639199200000e-02
0.0000000000000000e+00 4.0232976391991997e+00 1.3297639199200000e-02
9.0324748454682663e-02 1.9243255303819293e+00 1.3297639199200000e-02
ITEM: ATOMS id type xs ys zs
3 3 0.471968 0.471951 0.938228
4 4 0.485156 0.485147 0.978063
5 5 0.0302425 0.50762 1.0091
6 6 0.052929 0.506363 0.983465
7 5 0.507613 0.0302592 1.00908
8 6 0.506357 0.0529576 0.983446
9 5 0.505503 0.50551 -0.0212848
10 6 0.504697 0.504704 0.0433563
1 1 0.990806 0.990802 0.0655365
2 2 0.99168 0.991678 0.0383069
ITEM: TIMESTEP
3500
ITEM: NUMBER OF ATOMS
10
ITEM: BOX BOUNDS xy xz yz pp pp ss
0.0000000000000000e+00 4.0365952783983996e+00 1.3297639199200000e-02
0.0000000000000000e+00 4.0232976391991997e+00 1.3297639199200000e-02
9.0324748454682663e-02 1.9243255303819293e+00 1.3297639199200000e-02
ITEM: ATOMS id type xs ys zs
3 3 0.471968 0.471951 0.938229
4 4 0.485156 0.485147 0.978063
5 5 0.0302436 0.50762 1.00911
6 6 0.0529305 0.506364 0.983466
7 5 0.507614 0.03026 1.00908
8 6 0.506357 0.0529586 0.983448
9 5 0.505504 0.505511 -0.0212857
10 6 0.504698 0.504705 0.043355
1 1 0.990804 0.990801 0.0655348
2 2 0.991678 0.991676 0.0383054
ITEM: TIMESTEP
3600
ITEM: NUMBER OF ATOMS
10
ITEM: BOX BOUNDS xy xz yz pp pp ss
0.0000000000000000e+00 4.0365952783983996e+00 1.3297639199200000e-02
0.0000000000000000e+00 4.0232976391991997e+00 1.3297639199200000e-02
9.0324748454682663e-02 1.9243255303819293e+00 1.3297639199200000e-02
ITEM: ATOMS id type xs ys zs
3 3 0.471968 0.471951 0.93823
4 4 0.485156 0.485147 0.978064
5 5 0.0302445 0.50762 1.00911
6 6 0.0529315 0.506364 0.983466
7 5 0.507614 0.0302606 1.00908
8 6 0.506358 0.0529593 0.983448
9 5 0.505505 0.505512 -0.0212863
10 6 0.504699 0.504706 0.0433541
1 1 0.990803 0.9908 0.0655337
2 2 0.991677 0.991675 0.0383043
ITEM: TIMESTEP
3700
ITEM: NUMBER OF ATOMS
10
ITEM: BOX BOUNDS xy xz yz pp pp ss
0.0000000000000000e+00 4.0365952783983996e+00 1.3297639199200000e-02
0.0000000000000000e+00 4.0232976391991997e+00 1.3297639199200000e-02
9.0324748454682663e-02 1.9243255303819293e+00 1.3297639199200000e-02
ITEM: ATOMS id type xs ys zs
3 3 0.471968 0.471951 0.938231
4 4 0.485156 0.485148 0.978064
5 5 0.0302452 0.507621 1.00911
6 6 0.0529325 0.506364 0.983467
7 5 0.507614 0.030261 1.00908
8 6 0.506358 0.0529598 0.983449
9 5 0.505505 0.505513 -0.0212868
10 6 0.5047 0.504706 0.0433533
1 1 0.990802 0.990799 0.0655327
2 2 0.991677 0.991675 0.0383034
ITEM: TIMESTEP
3800
ITEM: NUMBER OF ATOMS
10
ITEM: BOX BOUNDS xy xz yz pp pp ss
0.0000000000000000e+00 4.0365952783983996e+00 1.3297639199200000e-02
0.0000000000000000e+00 4.0232976391991997e+00 1.3297639199200000e-02
9.0324748454682663e-02 1.9243255303819293e+00 1.3297639199200000e-02
ITEM: ATOMS id type xs ys zs
3 3 0.471968 0.471951 0.938232
4 4 0.485156 0.485148 0.978065
5 5 0.0302457 0.507621 1.00911
6 6 0.0529332 0.506364 0.983467
7 5 0.507614 0.0302613 1.00908
8 6 0.506358 0.0529601 0.98345
9 5 0.505506 0.505513 -0.0212871
10 6 0.5047 0.504707 0.0433528
1 1 0.990802 0.990799 0.065532
2 2 0.991676 0.991674 0.0383028
ITEM: TIMESTEP
3900
ITEM: NUMBER OF ATOMS
10
ITEM: BOX BOUNDS xy xz yz pp pp ss
0.0000000000000000e+00 4.0365952783983996e+00 1.3297639199200000e-02
0.0000000000000000e+00 4.0232976391991997e+00 1.3297639199200000e-02
9.0324748454682663e-02 1.9243255303819293e+00 1.3297639199200000e-02
ITEM: ATOMS id type xs ys zs
3 3 0.471968 0.471951 0.938232
4 4 0.485156 0.485148 0.978065
5 5 0.0302462 0.507621 1.00911
6 6 0.0529338 0.506364 0.983467
7 5 0.507615 0.0302615 1.00909
8 6 0.506358 0.0529603 0.98345
9 5 0.505506 0.505513 -0.0212874
10 6 0.504701 0.504707 0.0433523
1 1 0.990801 0.990798 0.0655314
2 2 0.991675 0.991674 0.0383023
ITEM: TIMESTEP
4000
ITEM: NUMBER OF ATOMS
10
ITEM: BOX BOUNDS xy xz yz pp pp ss
0.0000000000000000e+00 4.0365952783983996e+00 1.3297639199200000e-02
0.0000000000000000e+00 4.0232976391991997e+00 1.3297639199200000e-02
9.0324748454682663e-02 1.9243255303819293e+00 1.3297639199200000e-02
ITEM: ATOMS id type xs ys zs
3 3 0.471968 0.471951 0.938232
4 4 0.485156 0.485148 0.978065
5 5 0.0302465 0.507621 1.00911
6 6 0.0529343 0.506364 0.983468
7 5 0.507615 0.0302617 1.00909
8 6 0.506358 0.0529604 0.98345
9 5 0.505506 0.505514 -0.0212876
10 6 0.504701 0.504707 0.043352
1 1 0.990801 0.990798 0.065531
2 2 0.991675 0.991674 0.0383019
ITEM: TIMESTEP
4100
ITEM: NUMBER OF ATOMS
10
ITEM: BOX BOUNDS xy xz yz pp pp ss
0.0000000000000000e+00 4.0365952783983996e+00 1.3297639199200000e-02
0.0000000000000000e+00 4.0232976391991997e+00 1.3297639199200000e-02
9.0324748454682663e-02 1.9243255303819293e+00 1.3297639199200000e-02
ITEM: ATOMS id type xs ys zs
3 3 0.471968 0.471951 0.938233
4 4 0.485156 0.485148 0.978065
5 5 0.0302468 0.507621 1.00911
6 6 0.0529347 0.506364 0.983468
7 5 0.507615 0.0302617 1.00909
8 6 0.506358 0.0529605 0.983451
9 5 0.505506 0.505514 -0.0212878
10 6 0.504701 0.504708 0.0433517
1 1 0.9908 0.990798 0.0655307
2 2 0.991675 0.991673 0.0383017
ITEM: TIMESTEP
4200
ITEM: NUMBER OF ATOMS
10
ITEM: BOX BOUNDS xy xz yz pp pp ss
0.0000000000000000e+00 4.0365952783983996e+00 1.3297639199200000e-02
0.0000000000000000e+00 4.0232976391991997e+00 1.3297639199200000e-02
9.0324748454682663e-02 1.9243255303819293e+00 1.3297639199200000e-02
ITEM: ATOMS id type xs ys zs
3 3 0.471968 0.471951 0.938233
4 4 0.485156 0.485148 0.978065
5 5 0.030247 0.507621 1.00911
6 6 0.052935 0.506364 0.983468
7 5 0.507615 0.0302618 1.00909
8 6 0.506359 0.0529605 0.983451
9 5 0.505507 0.505514 -0.0212879
10 6 0.504701 0.504708 0.0433516
1 1 0.9908 0.990798 0.0655305
2 2 0.991675 0.991673 0.0383015
ITEM: TIMESTEP
4300
ITEM: NUMBER OF ATOMS
10
ITEM: BOX BOUNDS xy xz yz pp pp ss
0.0000000000000000e+00 4.0365952783983996e+00 1.3297639199200000e-02
0.0000000000000000e+00 4.0232976391991997e+00 1.3297639199200000e-02
9.0324748454682663e-02 1.9243255303819293e+00 1.3297639199200000e-02
ITEM: ATOMS id type xs ys zs
3 3 0.471968 0.471951 0.938233
4 4 0.485156 0.485148 0.978065
5 5 0.0302472 0.507621 1.00911
6 6 0.0529352 0.506364 0.983468
7 5 0.507615 0.0302618 1.00909
8 6 0.506359 0.0529605 0.983451
9 5 0.505507 0.505514 -0.0212879
10 6 0.504701 0.504708 0.0433515
1 1 0.9908 0.990798 0.0655304
2 2 0.991674 0.991673 0.0383013
ITEM: TIMESTEP
4400
ITEM: NUMBER OF ATOMS
10
ITEM: BOX BOUNDS xy xz yz pp pp ss
0.0000000000000000e+00 4.0365952783983996e+00 1.3297639199200000e-02
0.0000000000000000e+00 4.0232976391991997e+00 1.3297639199200000e-02
9.0324748454682663e-02 1.9243255303819293e+00 1.3297639199200000e-02
ITEM: ATOMS id type xs ys zs
3 3 0.471968 0.471951 0.938233
4 4 0.485156 0.485148 0.978065
5 5 0.0302474 0.507621 1.00911
6 6 0.0529355 0.506364 0.983468
7 5 0.507615 0.0302617 1.00909
8 6 0.506359 0.0529604 0.983451
9 5 0.505507 0.505514 -0.021288
10 6 0.504701 0.504708 0.0433514
1 1 0.9908 0.990797 0.0655302
2 2 0.991674 0.991673 0.0383012
ITEM: TIMESTEP
4500
ITEM: NUMBER OF ATOMS
10
ITEM: BOX BOUNDS xy xz yz pp pp ss
0.0000000000000000e+00 4.0365952783983996e+00 1.3297639199200000e-02
0.0000000000000000e+00 4.0232976391991997e+00 1.3297639199200000e-02
9.0324748454682663e-02 1.9243255303819293e+00 1.3297639199200000e-02
ITEM: ATOMS id type xs ys zs
3 3 0.471968 0.471951 0.938233
4 4 0.485156 0.485148 0.978065
5 5 0.0302475 0.507621 1.00911
6 6 0.0529356 0.506364 0.983468
7 5 0.507615 0.0302617 1.00909
8 6 0.506359 0.0529604 0.983451
9 5 0.505507 0.505514 -0.0212881
10 6 0.504701 0.504708 0.0433513
1 1 0.9908 0.990797 0.0655302
2 2 0.991674 0.991673 0.0383011
ITEM: TIMESTEP
4600
ITEM: NUMBER OF ATOMS
10
ITEM: BOX BOUNDS xy xz yz pp pp ss
0.0000000000000000e+00 4.0365952783983996e+00 1.3297639199200000e-02
0.0000000000000000e+00 4.0232976391991997e+00 1.3297639199200000e-02
9.0324748454682663e-02 1.9243255303819293e+00 1.3297639199200000e-02
ITEM: ATOMS id type xs ys zs
3 3 0.471968 0.471952 0.938233
4 4 0.485156 0.485148 0.978065
5 5 0.0302476 0.50762 1.00911
6 6 0.0529358 0.506364 0.983468
7 5 0.507615 0.0302617 1.00909
8 6 0.506359 0.0529603 0.983451
9 5 0.505507 0.505514 -0.0212881
10 6 0.504701 0.504708 0.0433512
1 1 0.990799 0.990797 0.0655301
2 2 0.991674 0.991673 0.0383011
ITEM: TIMESTEP
4700
ITEM: NUMBER OF ATOMS
10
ITEM: BOX BOUNDS xy xz yz pp pp ss
0.0000000000000000e+00 4.0365952783983996e+00 1.3297639199200000e-02
0.0000000000000000e+00 4.0232976391991997e+00 1.3297639199200000e-02
9.0324748454682663e-02 1.9243255303819293e+00 1.3297639199200000e-02
ITEM: ATOMS id type xs ys zs
3 3 0.471968 0.471952 0.938233
4 4 0.485156 0.485148 0.978065
5 5 0.0302477 0.50762 1.00911