ITEM: TIMESTEP
0
ITEM: NUMBER OF ATOMS
10
ITEM: BOX BOUNDS xy xz yz pp pp ss
0.0000000000000000e+00 4.0365952783983996e+00 1.3297639199200000e-02
0.0000000000000000e+00 4.0232976391991997e+00 1.3297639199200000e-02
-1.0029412042728328e-03 2.0060029412042728e+00 1.3297639199200000e-02
ITEM: ATOMS id type c_dr[1] c_dr[2] c_dr[3] 
1 1 0 0 0 
2 2 0 0 0 
3 3 0 8.88178e-16 0 
4 4 0 8.88178e-16 0 
7 5 0 -1.77636e-15 0 
8 6 0 -1.77636e-15 0 
5 5 0 8.88178e-16 0 
6 6 0 8.88178e-16 0 
9 5 8.88178e-16 0 0 
10 6 8.88178e-16 0 0 
ITEM: TIMESTEP
100
ITEM: NUMBER OF ATOMS
10
ITEM: BOX BOUNDS xy xz yz pp pp ss
0.0000000000000000e+00 4.0365952783983996e+00 1.3297639199200000e-02
0.0000000000000000e+00 4.0232976391991997e+00 1.3297639199200000e-02
-1.0029412042728328e-03 2.0060029412042728e+00 1.3297639199200000e-02
ITEM: ATOMS id type c_dr[1] c_dr[2] c_dr[3] 
1 1 0.00134456 0.00134469 0.0973155 
2 2 0.00175502 0.00175514 0.0472642 
3 3 -0.00347489 -0.00347495 -0.162497 
4 4 -0.00302145 -0.00302158 -0.0885586 
7 5 -0.000271786 -0.00219922 -0.00184629 
8 6 -0.000186072 -0.0019293 -0.0633323 
5 5 -0.00219273 -0.000265299 -0.00184276 
6 6 -0.00192335 -0.000180252 -0.0633275 
9 5 0.00452826 0.00452817 0.0712271 
10 6 0.00614826 0.00614815 0.192329 
ITEM: TIMESTEP
200
ITEM: NUMBER OF ATOMS
10
ITEM: BOX BOUNDS xy xz yz pp pp ss
0.0000000000000000e+00 4.0365952783983996e+00 1.3297639199200000e-02
0.0000000000000000e+00 4.0232976391991997e+00 1.3297639199200000e-02
-1.0029412042728328e-03 2.0060029412042728e+00 1.3297639199200000e-02
ITEM: ATOMS id type c_dr[1] c_dr[2] c_dr[3] 
1 1 0.00220132 0.0022015 0.146247 
2 2 0.00264267 0.00264283 0.0940583 
3 3 -0.0058616 -0.00586159 -0.193261 
4 4 -0.00485463 -0.00485472 -0.112181 
7 5 -0.000810655 -0.00189509 -0.0273087 
8 6 -0.00080088 0.000173817 -0.0899109 
5 5 -0.00189134 -0.000806994 -0.0273031 
6 6 0.000170916 -0.000804159 -0.0899045 
9 5 0.00638032 0.00638017 0.0864341 
10 6 0.00734466 0.00734452 0.212684 
ITEM: TIMESTEP
300
ITEM: NUMBER OF ATOMS
10
ITEM: BOX BOUNDS xy xz yz pp pp ss
0.0000000000000000e+00 4.0365952783983996e+00 1.3297639199200000e-02
0.0000000000000000e+00 4.0232976391991997e+00 1.3297639199200000e-02
-1.0029412042728328e-03 2.0060029412042728e+00 1.3297639199200000e-02
ITEM: ATOMS id type c_dr[1] c_dr[2] c_dr[3] 
1 1 0.00296203 0.00296224 0.185506 
2 2 0.00339135 0.00339153 0.131418 
3 3 -0.00923406 -0.00923388 -0.213651 
4 4 -0.00704404 -0.00704409 -0.124067 
7 5 -0.00118237 0.000124968 -0.0501274 
8 6 -0.00109704 0.00512009 -0.111651 
5 5 0.000120846 -0.0011868 -0.0501204 
6 6 0.00510006 -0.00111793 -0.111643 
9 5 0.00770063 0.00770046 0.0925827 
10 6 0.00815638 0.00815624 0.223799 
ITEM: TIMESTEP
400
ITEM: NUMBER OF ATOMS
10
ITEM: BOX BOUNDS xy xz yz pp pp ss
0.0000000000000000e+00 4.0365952783983996e+00 1.3297639199200000e-02
0.0000000000000000e+00 4.0232976391991997e+00 1.3297639199200000e-02
-1.0029412042728328e-03 2.0060029412042728e+00 1.3297639199200000e-02
ITEM: ATOMS id type c_dr[1] c_dr[2] c_dr[3] 
1 1 0.00338847 0.00338867 0.213141 
2 2 0.00379469 0.00379484 0.157693 
3 3 -0.0142239 -0.0142234 -0.227553 
4 4 -0.0100365 -0.0100364 -0.132549 
7 5 -0.000775327 0.00417999 -0.065088 
8 6 -0.000584207 0.0137531 -0.125615 
5 5 0.00416384 -0.000792168 -0.0650799 
6 6 0.0137066 -0.000632419 -0.125607 
9 5 0.00857151 0.00857138 0.094446 
10 6 0.00856212 0.00856204 0.229185 
ITEM: TIMESTEP
500
ITEM: NUMBER OF ATOMS
10
ITEM: BOX BOUNDS xy xz yz pp pp ss
0.0000000000000000e+00 4.0365952783983996e+00 1.3297639199200000e-02
0.0000000000000000e+00 4.0232976391991997e+00 1.3297639199200000e-02
-1.0029412042728328e-03 2.0060029412042728e+00 1.3297639199200000e-02
ITEM: ATOMS id type c_dr[1] c_dr[2] c_dr[3] 
1 1 0.00328644 0.00328661 0.229071 
2 2 0.00369188 0.00369198 0.173122 
3 3 -0.0203369 -0.0203357 -0.234997 
4 4 -0.0136287 -0.0136282 -0.139127 
7 5 0.000389314 0.0094075 -0.0726639 
8 6 0.000590502 0.0245429 -0.132879 
5 5 0.00937808 0.000358565 -0.0726547 
6 6 0.0244657 0.000509893 -0.132871 
9 5 0.00908757 0.00908746 0.0947459 
10 6 0.00863215 0.00863213 0.231997 
ITEM: TIMESTEP
600
ITEM: NUMBER OF ATOMS
10
ITEM: BOX BOUNDS xy xz yz pp pp ss
0.0000000000000000e+00 4.0365952783983996e+00 1.3297639199200000e-02
0.0000000000000000e+00 4.0232976391991997e+00 1.3297639199200000e-02
-1.0029412042728328e-03 2.0060029412042728e+00 1.3297639199200000e-02
ITEM: ATOMS id type c_dr[1] c_dr[2] c_dr[3] 
1 1 0.00234224 0.00234233 0.240928 
2 2 0.002793 0.002793 0.184712 
3 3 -0.0310239 -0.0310201 -0.240032 
4 4 -0.0199338 -0.0199315 -0.142475 
7 5 0.00309885 0.0191136 -0.0783048 
8 6 0.003185 0.0438248 -0.137742 
5 5 0.0190622 0.00304395 -0.0782929 
6 6 0.043697 0.00304804 -0.137732 
9 5 0.00963506 0.00963472 0.0942313 
10 6 0.00851169 0.00851148 0.232418 
ITEM: TIMESTEP
700
ITEM: NUMBER OF ATOMS
10
ITEM: BOX BOUNDS xy xz yz pp pp ss
0.0000000000000000e+00 4.0365952783983996e+00 1.3297639199200000e-02
0.0000000000000000e+00 4.0232976391991997e+00 1.3297639199200000e-02
-1.0029412042728328e-03 2.0060029412042728e+00 1.3297639199200000e-02
ITEM: ATOMS id type c_dr[1] c_dr[2] c_dr[3] 
1 1 0.000174789 0.000174895 0.246573 
2 2 0.00074692 0.000746958 0.190497 
3 3 -0.0460379 -0.0460255 -0.240423 
4 4 -0.0287086 -0.0287 -0.143378 
7 5 0.00726032 0.0327929 -0.0812556 
8 6 0.00697566 0.0704555 -0.139343 
5 5 0.0327149 0.00717197 -0.0812372 
6 6 0.070268 0.00676123 -0.139331 
9 5 0.0101135 0.0101118 0.0921587 
10 6 0.00815407 0.00815269 0.229709 
ITEM: TIMESTEP
800
ITEM: NUMBER OF ATOMS
10
ITEM: BOX BOUNDS xy xz yz pp pp ss
0.0000000000000000e+00 4.0365952783983996e+00 1.3297639199200000e-02
0.0000000000000000e+00 4.0232976391991997e+00 1.3297639199200000e-02
9.0324748454682663e-02 1.9243255303819293e+00 1.3297639199200000e-02
ITEM: ATOMS id type c_dr[1] c_dr[2] c_dr[3] 
3 3 -0.0686345 -0.0685921 -0.235021 
4 4 -0.041389 -0.0413584 -0.141551 
5 5 0.0547506 0.0138602 -0.0826419 
6 6 0.11088 0.0123926 -0.137753 
7 5 0.0140042 0.0548588 -0.0826746 
8 6 0.0127262 0.11113 -0.137775 
9 5 0.0106974 0.0106903 0.086202 
10 6 0.00772528 0.00771937 0.220571 
1 1 -0.00433369 -0.00433251 0.247049 
2 2 -0.00350005 -0.00349886 0.191849 
ITEM: TIMESTEP
900
ITEM: NUMBER OF ATOMS
10
ITEM: BOX BOUNDS xy xz yz pp pp ss
0.0000000000000000e+00 4.0365952783983996e+00 1.3297639199200000e-02
0.0000000000000000e+00 4.0232976391991997e+00 1.3297639199200000e-02
9.0324748454682663e-02 1.9243255303819293e+00 1.3297639199200000e-02
ITEM: ATOMS id type c_dr[1] c_dr[2] c_dr[3] 
3 3 -0.0879484 -0.0878551 -0.224952 
4 4 -0.0513372 -0.0512717 -0.137533 
5 5 0.0768452 0.0202226 -0.0811944 
6 6 0.147094 0.0171824 -0.133115 
7 5 0.0204259 0.0769608 -0.0812442 
8 6 0.0176233 0.147358 -0.13315 
9 5 0.0115769 0.0115595 0.0774986 
10 6 0.0081304 0.00811674 0.207672 
1 1 -0.00986176 -0.00985646 0.242186 
2 2 -0.00866981 -0.00866457 0.188388 
ITEM: TIMESTEP
1000
ITEM: NUMBER OF ATOMS
10
ITEM: BOX BOUNDS xy xz yz pp pp ss
0.0000000000000000e+00 4.0365952783983996e+00 1.3297639199200000e-02
0.0000000000000000e+00 4.0232976391991997e+00 1.3297639199200000e-02
9.0324748454682663e-02 1.9243255303819293e+00 1.3297639199200000e-02
ITEM: ATOMS id type c_dr[1] c_dr[2] c_dr[3] 
3 3 -0.101648 -0.101497 -0.214463 
4 4 -0.0577408 -0.0576399 -0.13162 
5 5 0.0944863 0.0249672 -0.0776412 
6 6 0.174636 0.0204614 -0.126866 
7 5 0.02522 0.0945876 -0.0777049 
8 6 0.0209849 0.174879 -0.126914 
9 5 0.0129227 0.0128942 0.0683555 
10 6 0.00948495 0.00946308 0.19386 
1 1 -0.0163494 -0.0163347 0.234228 
2 2 -0.0147578 -0.0147436 0.181754 
ITEM: TIMESTEP
1100
ITEM: NUMBER OF ATOMS
10
ITEM: BOX BOUNDS xy xz yz pp pp ss
0.0000000000000000e+00 4.0365952783983996e+00 1.3297639199200000e-02
0.0000000000000000e+00 4.0232976391991997e+00 1.3297639199200000e-02
9.0324748454682663e-02 1.9243255303819293e+00 1.3297639199200000e-02
ITEM: ATOMS id type c_dr[1] c_dr[2] c_dr[3] 
3 3 -0.107347 -0.107162 -0.208051 
4 4 -0.0597913 -0.0596726 -0.128478 
5 5 0.103934 0.0271292 -0.0742666 
6 6 0.188207 0.0220025 -0.122452 
7 5 0.0274102 0.104018 -0.0743364 
8 6 0.0225679 0.188424 -0.122505 
9 5 0.0142828 0.0142475 0.0625713 
10 6 0.0110842 0.0110569 0.185736 
1 1 -0.0209834 -0.0209589 0.228065 
2 2 -0.0190606 -0.019037 0.176447 
ITEM: TIMESTEP
1200
ITEM: NUMBER OF ATOMS
10
ITEM: BOX BOUNDS xy xz yz pp pp ss
0.0000000000000000e+00 4.0365952783983996e+00 1.3297639199200000e-02
0.0000000000000000e+00 4.0232976391991997e+00 1.3297639199200000e-02
9.0324748454682663e-02 1.9243255303819293e+00 1.3297639199200000e-02
ITEM: ATOMS id type c_dr[1] c_dr[2] c_dr[3] 
3 3 -0.109935 -0.109731 -0.204281 
4 4 -0.0604293 -0.060301 -0.126969 
5 5 0.109095 0.0282144 -0.0717966 
6 6 0.195471 0.022856 -0.119578 
7 5 0.028512 0.109165 -0.0718684 
8 6 0.023445 0.195667 -0.119633 
9 5 0.0154976 0.0154582 0.0592976 
10 6 0.0124957 0.0124649 0.181224 
1 1 -0.0242478 -0.0242147 0.223756 
2 2 -0.0220832 -0.0220517 0.172659 
ITEM: TIMESTEP
1300
ITEM: NUMBER OF ATOMS
10
ITEM: BOX BOUNDS xy xz yz pp pp ss
0.0000000000000000e+00 4.0365952783983996e+00 1.3297639199200000e-02
0.0000000000000000e+00 4.0232976391991997e+00 1.3297639199200000e-02
9.0324748454682663e-02 1.9243255303819293e+00 1.3297639199200000e-02
ITEM: ATOMS id type c_dr[1] c_dr[2] c_dr[3] 
3 3 -0.111763 -0.111539 -0.200787 
4 4 -0.0606855 -0.0605516 -0.124647 
5 5 0.11376 0.0291456 -0.0692303 
6 6 0.201857 0.0236626 -0.11665 
7 5 0.0294602 0.113813 -0.0693023 
8 6 0.0242742 0.202028 -0.116705 
9 5 0.0170835 0.01704 0.0563403 
10 6 0.0142969 0.0142622 0.176863 
1 1 -0.02771 -0.0276661 0.219411 
2 2 -0.0252641 -0.0252224 0.16874 
ITEM: TIMESTEP
1400
ITEM: NUMBER OF ATOMS
10
ITEM: BOX BOUNDS xy xz yz pp pp ss
0.0000000000000000e+00 4.0365952783983996e+00 1.3297639199200000e-02
0.0000000000000000e+00 4.0232976391991997e+00 1.3297639199200000e-02
9.0324748454682663e-02 1.9243255303819293e+00 1.3297639199200000e-02
ITEM: ATOMS id type c_dr[1] c_dr[2] c_dr[3] 
3 3 -0.112496 -0.11226 -0.19894 
4 4 -0.0605947 -0.060456 -0.123966 
5 5 0.116099 0.0296124 -0.067828 
6 6 0.205018 0.0241182 -0.115148 
7 5 0.029937 0.116141 -0.0678987 
8 6 0.0247423 0.20517 -0.115203 
9 5 0.0181636 0.0181179 0.054927 
10 6 0.0154991 0.0154624 0.1749 
1 1 -0.0298257 -0.0297741 0.216954 
2 2 -0.0272031 -0.0271542 0.166537 
ITEM: TIMESTEP
1500
ITEM: NUMBER OF ATOMS
10
ITEM: BOX BOUNDS xy xz yz pp pp ss
0.0000000000000000e+00 4.0365952783983996e+00 1.3297639199200000e-02
0.0000000000000000e+00 4.0232976391991997e+00 1.3297639199200000e-02
9.0324748454682663e-02 1.9243255303819293e+00 1.3297639199200000e-02
ITEM: ATOMS id type c_dr[1] c_dr[2] c_dr[3] 
3 3 -0.11298 -0.112734 -0.1975 
4 4 -0.0605199 -0.0603798 -0.123146 
5 5 0.117849 0.0299611 -0.0667726 
6 6 0.207373 0.0244715 -0.113977 
7 5 0.0302946 0.11788 -0.0668411 
8 6 0.0251065 0.207509 -0.114031 
9 5 0.0191423 0.0190951 0.0539147 
10 6 0.016577 0.0165386 0.17338 
1 1 -0.0316762 -0.0316165 0.214989 
2 2 -0.0289092 -0.0288526 0.164727 
ITEM: TIMESTEP
1600
ITEM: NUMBER OF ATOMS
10
ITEM: BOX BOUNDS xy xz yz pp pp ss
0.0000000000000000e+00 4.0365952783983996e+00 1.3297639199200000e-02
0.0000000000000000e+00 4.0232976391991997e+00 1.3297639199200000e-02
9.0324748454682663e-02 1.9243255303819293e+00 1.3297639199200000e-02
ITEM: ATOMS id type c_dr[1] c_dr[2] c_dr[3] 
3 3 -0.113198 -0.112946 -0.196755 
4 4 -0.0604245 -0.0602827 -0.122796 
5 5 0.118792 0.0301427 -0.0662161 
6 6 0.2086 0.0246655 -0.113382 
7 5 0.0304818 0.118816 -0.0662828 
8 6 0.0253069 0.208725 -0.113435 
9 5 0.0197373 0.0196893 0.0533949 
10 6 0.0172144 0.0171752 0.17263 
1 1 -0.0326899 -0.032625 0.214 
2 2 -0.0298349 -0.0297734 0.163833 
ITEM: TIMESTEP
1700
ITEM: NUMBER OF ATOMS
10
ITEM: BOX BOUNDS xy xz yz pp pp ss
0.0000000000000000e+00 4.0365952783983996e+00 1.3297639199200000e-02
0.0000000000000000e+00 4.0232976391991997e+00 1.3297639199200000e-02
9.0324748454682663e-02 1.9243255303819293e+00 1.3297639199200000e-02
ITEM: ATOMS id type c_dr[1] c_dr[2] c_dr[3] 
3 3 -0.113363 -0.113103 -0.196087 
4 4 -0.0603134 -0.0601685 -0.122447 
5 5 0.119648 0.0303114 -0.0657189 
6 6 0.209733 0.0248576 -0.112838 
7 5 0.0306566 0.119664 -0.0657832 
8 6 0.0255057 0.209845 -0.112889 
9 5 0.0203356 0.020287 0.0529508 
10 6 0.0178644 0.0178245 0.171959 
1 1 -0.0336929 -0.0336222 0.213091 
2 2 -0.0307555 -0.0306888 0.163 
ITEM: TIMESTEP
1800
ITEM: NUMBER OF ATOMS
10
ITEM: BOX BOUNDS xy xz yz pp pp ss
0.0000000000000000e+00 4.0365952783983996e+00 1.3297639199200000e-02
0.0000000000000000e+00 4.0232976391991997e+00 1.3297639199200000e-02
9.0324748454682663e-02 1.9243255303819293e+00 1.3297639199200000e-02
ITEM: ATOMS id type c_dr[1] c_dr[2] c_dr[3] 
3 3 -0.113448 -0.113183 -0.195708 
4 4 -0.060225 -0.0600544 -0.122298 
5 5 0.120146 0.0304104 -0.065445 
6 6 0.210361 0.0249758 -0.112549 
7 5 0.0307597 0.120156 -0.0655069 
8 6 0.0256261 0.210455 -0.112598 
9 5 0.0207096 0.0206614 0.0527002 
10 6 0.0182604 0.0182231 0.171602 
1 1 -0.0343182 -0.0342426 0.212571 
2 2 -0.0313295 -0.0312604 0.162529 
ITEM: TIMESTEP
1900
ITEM: NUMBER OF ATOMS
10
ITEM: BOX BOUNDS xy xz yz pp pp ss
0.0000000000000000e+00 4.0365952783983996e+00 1.3297639199200000e-02
0.0000000000000000e+00 4.0232976391991997e+00 1.3297639199200000e-02
9.0324748454682663e-02 1.9243255303819293e+00 1.3297639199200000e-02
ITEM: ATOMS id type c_dr[1] c_dr[2] c_dr[3] 
3 3 -0.113497 -0.11323 -0.195458 
4 4 -0.0601924 -0.0600338 -0.122112 
5 5 0.12049 0.0304791 -0.0652624 
6 6 0.210819 0.0250525 -0.112341 
7 5 0.0308318 0.120494 -0.0653221 
8 6 0.0257077 0.210909 -0.112388 
9 5 0.0209817 0.020934 0.0525332 
10 6 0.0185503 0.018512 0.171331 
1 1 -0.0347445 -0.0346647 0.212236 
2 2 -0.0317136 -0.0316395 0.162221 
ITEM: TIMESTEP
2000
ITEM: NUMBER OF ATOMS
10
ITEM: BOX BOUNDS xy xz yz pp pp ss
0.0000000000000000e+00 4.0365952783983996e+00 1.3297639199200000e-02
0.0000000000000000e+00 4.0232976391991997e+00 1.3297639199200000e-02
9.0324748454682663e-02 1.9243255303819293e+00 1.3297639199200000e-02
ITEM: ATOMS id type c_dr[1] c_dr[2] c_dr[3] 
3 3 -0.113532 -0.113247 -0.195283 
4 4 -0.0601499 -0.0600087 -0.122002 
5 5 0.120735 0.0305284 -0.065135 
6 6 0.211132 0.02511 -0.112201 
7 5 0.0308834 0.120734 -0.0651926 
8 6 0.0257687 0.211219 -0.112247 
9 5 0.0211832 0.0211364 0.0524191 
10 6 0.0187623 0.018724 0.171153 
1 1 -0.0350673 -0.0349852 0.211996 
2 2 -0.0320068 -0.031928 0.162 
ITEM: TIMESTEP
2100
ITEM: NUMBER OF ATOMS
10
ITEM: BOX BOUNDS xy xz yz pp pp ss
0.0000000000000000e+00 4.0365952783983996e+00 1.3297639199200000e-02
0.0000000000000000e+00 4.0232976391991997e+00 1.3297639199200000e-02
9.0324748454682663e-02 1.9243255303819293e+00 1.3297639199200000e-02
ITEM: ATOMS id type c_dr[1] c_dr[2] c_dr[3] 
3 3 -0.113552 -0.113274 -0.195143 
4 4 -0.0601276 -0.0599602 -0.121927 
5 5 0.120928 0.0305667 -0.065037 
6 6 0.211388 0.0251578 -0.112091 
7 5 0.0309247 0.120924 -0.0650928 
8 6 0.0258181 0.211461 -0.112135 
9 5 0.021347 0.0213006 0.0523306 
10 6 0.0189374 0.0189005 0.171016 
1 1 -0.0353271 -0.0352403 0.211812 
2 2 -0.0322442 -0.0321641 0.161831 
ITEM: TIMESTEP
2200
ITEM: NUMBER OF ATOMS
10
ITEM: BOX BOUNDS xy xz yz pp pp ss
0.0000000000000000e+00 4.0365952783983996e+00 1.3297639199200000e-02
0.0000000000000000e+00 4.0232976391991997e+00 1.3297639199200000e-02
9.0324748454682663e-02 1.9243255303819293e+00 1.3297639199200000e-02
ITEM: ATOMS id type c_dr[1] c_dr[2] c_dr[3] 
3 3 -0.113568 -0.113286 -0.195039 
4 4 -0.0601048 -0.0599303 -0.121866 
5 5 0.12108 0.0305964 -0.0649627 
6 6 0.211582 0.0251943 -0.112009 
7 5 0.030957 0.121071 -0.0650169 
8 6 0.0258564 0.211647 -0.112052 
9 5 0.0214781 0.0214315 0.0522629 
10 6 0.0190749 0.0190386 0.170911 
1 1 -0.0355311 -0.0354416 0.211674 
2 2 -0.0324291 -0.0323471 0.161705 
ITEM: TIMESTEP
2300
ITEM: NUMBER OF ATOMS
10
ITEM: BOX BOUNDS xy xz yz pp pp ss
0.0000000000000000e+00 4.0365952783983996e+00 1.3297639199200000e-02
0.0000000000000000e+00 4.0232976391991997e+00 1.3297639199200000e-02
9.0324748454682663e-02 1.9243255303819293e+00 1.3297639199200000e-02
ITEM: ATOMS id type c_dr[1] c_dr[2] c_dr[3] 
3 3 -0.113581 -0.113291 -0.194961 
4 4 -0.0600717 -0.0599192 -0.121821 
5 5 0.121196 0.0306199 -0.064908 
6 6 0.211727 0.0252223 -0.111948 
7 5 0.0309821 0.121182 -0.0649599 
8 6 0.0258881 0.211792 -0.111989 
9 5 0.0215799 0.0215348 0.0522124 
10 6 0.019183 0.0191463 0.170833 
1 1 -0.035688 -0.0355957 0.211572 
2 2 -0.0325736 -0.0324863 0.161612 
ITEM: TIMESTEP
2400
ITEM: NUMBER OF ATOMS
10
ITEM: BOX BOUNDS xy xz yz pp pp ss
0.0000000000000000e+00 4.0365952783983996e+00 1.3297639199200000e-02
0.0000000000000000e+00 4.0232976391991997e+00 1.3297639199200000e-02
9.0324748454682663e-02 1.9243255303819293e+00 1.3297639199200000e-02
ITEM: ATOMS id type c_dr[1] c_dr[2] c_dr[3] 
3 3 -0.113585 -0.113294 -0.19491 
4 4 -0.0600603 -0.0598982 -0.121792 
5 5 0.121272 0.0306356 -0.0648732 
6 6 0.211826 0.0252425 -0.111909 
7 5 0.0309996 0.121255 -0.0649235 
8 6 0.0259093 0.211883 -0.111949 
9 5 0.0216482 0.0216037 0.0521803 
10 6 0.0192549 0.0192193 0.170783 
1 1 -0.0357923 -0.0356974 0.211507 
2 2 -0.032668 -0.0325791 0.161552 
ITEM: TIMESTEP
2500
ITEM: NUMBER OF ATOMS
10
ITEM: BOX BOUNDS xy xz yz pp pp ss
0.0000000000000000e+00 4.0365952783983996e+00 1.3297639199200000e-02
0.0000000000000000e+00 4.0232976391991997e+00 1.3297639199200000e-02
9.0324748454682663e-02 1.9243255303819293e+00 1.3297639199200000e-02
ITEM: ATOMS id type c_dr[1] c_dr[2] c_dr[3] 
3 3 -0.113588 -0.113297 -0.194872 
4 4 -0.0600464 -0.0598886 -0.12177 
5 5 0.121328 0.0306475 -0.0648479 
6 6 0.211896 0.0252572 -0.11188 
7 5 0.0310131 0.121309 -0.0648969 
8 6 0.0259261 0.211951 -0.11192 
9 5 0.0216995 0.0216553 0.0521576 
10 6 0.0193095 0.0192736 0.170747 
1 1 -0.0358759 -0.0357783 0.211457 
2 2 -0.032744 -0.0326523 0.161506 
ITEM: TIMESTEP
2600
ITEM: NUMBER OF ATOMS
10
ITEM: BOX BOUNDS xy xz yz pp pp ss
0.0000000000000000e+00 4.0365952783983996e+00 1.3297639199200000e-02
0.0000000000000000e+00 4.0232976391991997e+00 1.3297639199200000e-02
9.0324748454682663e-02 1.9243255303819293e+00 1.3297639199200000e-02
ITEM: ATOMS id type c_dr[1] c_dr[2] c_dr[3] 
3 3 -0.113591 -0.113297 -0.194839 
4 4 -0.0600314 -0.0598829 -0.121752 
5 5 0.121378 0.0306578 -0.0648261 
6 6 0.211957 0.0252697 -0.111856 
7 5 0.0310252 0.121356 -0.064874 
8 6 0.0259411 0.212012 -0.111895 
9 5 0.0217454 0.0217009 0.0521373 
10 6 0.0193579 0.0193209 0.170716 
1 1 -0.0359481 -0.0358485 0.211415 
2 2 -0.0328104 -0.032716 0.161467 
ITEM: TIMESTEP
2700
ITEM: NUMBER OF ATOMS
10
ITEM: BOX BOUNDS xy xz yz pp pp ss
0.0000000000000000e+00 4.0365952783983996e+00 1.3297639199200000e-02
0.0000000000000000e+00 4.0232976391991997e+00 1.3297639199200000e-02
9.0324748454682663e-02 1.9243255303819293e+00 1.3297639199200000e-02
ITEM: ATOMS id type c_dr[1] c_dr[2] c_dr[3] 
3 3 -0.113593 -0.113298 -0.194824 
4 4 -0.0600331 -0.0598709 -0.121742 
5 5 0.121402 0.0306627 -0.0648158 
6 6 0.211991 0.0252766 -0.111844 
7 5 0.0310311 0.121378 -0.064863 
8 6 0.0259478 0.212038 -0.111882 
9 5 0.0217677 0.0217232 0.0521276 
10 6 0.0193811 0.0193453 0.1707 
1 1 -0.0359849 -0.035884 0.211394 
2 2 -0.0328432 -0.0327488 0.161448 
ITEM: TIMESTEP
2800
ITEM: NUMBER OF ATOMS
10
ITEM: BOX BOUNDS xy xz yz pp pp ss
0.0000000000000000e+00 4.0365952783983996e+00 1.3297639199200000e-02
0.0000000000000000e+00 4.0232976391991997e+00 1.3297639199200000e-02
9.0324748454682663e-02 1.9243255303819293e+00 1.3297639199200000e-02
ITEM: ATOMS id type c_dr[1] c_dr[2] c_dr[3] 
3 3 -0.113595 -0.113298 -0.194805 
4 4 -0.0600251 -0.0598656 -0.121732 
5 5 0.121433 0.0306689 -0.0648031 
6 6 0.21203 0.0252844 -0.11183 
7 5 0.0310387 0.121407 -0.064849 
8 6 0.0259572 0.212074 -0.111867 
9 5 0.0217962 0.021752 0.052115 
10 6 0.0194113 0.0193753 0.170681 
1 1 -0.036029 -0.0359262 0.21137 
2 2 -0.0328835 -0.0327871 0.161426 
ITEM: TIMESTEP
2900
ITEM: NUMBER OF ATOMS
10
ITEM: BOX BOUNDS xy xz yz pp pp ss
0.0000000000000000e+00 4.0365952783983996e+00 1.3297639199200000e-02
0.0000000000000000e+00 4.0232976391991997e+00 1.3297639199200000e-02
9.0324748454682663e-02 1.9243255303819293e+00 1.3297639199200000e-02
ITEM: ATOMS id type c_dr[1] c_dr[2] c_dr[3] 
3 3 -0.113595 -0.113299 -0.194793 
4 4 -0.0600234 -0.0598588 -0.121725 
5 5 0.121452 0.0306726 -0.0647954 
6 6 0.212055 0.0252895 -0.111821 
7 5 0.0310435 0.121424 -0.0648404 
8 6 0.025963 0.212095 -0.111857 
9 5 0.0218139 0.0217696 0.0521076 
10 6 0.0194298 0.0193942 0.170669 
1 1 -0.0360575 -0.0359533 0.211354 
2 2 -0.0329094 -0.0328121 0.161412 
ITEM: TIMESTEP
3000
ITEM: NUMBER OF ATOMS
10
ITEM: BOX BOUNDS xy xz yz pp pp ss
0.0000000000000000e+00 4.0365952783983996e+00 1.3297639199200000e-02
0.0000000000000000e+00 4.0232976391991997e+00 1.3297639199200000e-02
9.0324748454682663e-02 1.9243255303819293e+00 1.3297639199200000e-02
ITEM: ATOMS id type c_dr[1] c_dr[2] c_dr[3] 
3 3 -0.113596 -0.113298 -0.194783 
4 4 -0.0600206 -0.0598543 -0.12172 
5 5 0.121468 0.0306757 -0.0647893 
6 6 0.212076 0.0252934 -0.111814 
7 5 0.0310477 0.121439 -0.0648333 
8 6 0.025968 0.212112 -0.11185 
9 5 0.0218287 0.0217845 0.0521013 
10 6 0.0194453 0.0194097 0.170659 
1 1 -0.0360798 -0.0359743 0.211342 
2 2 -0.032929 -0.0328308 0.161402 
ITEM: TIMESTEP
3100
ITEM: NUMBER OF ATOMS
10
ITEM: BOX BOUNDS xy xz yz pp pp ss
0.0000000000000000e+00 4.0365952783983996e+00 1.3297639199200000e-02
0.0000000000000000e+00 4.0232976391991997e+00 1.3297639199200000e-02
9.0324748454682663e-02 1.9243255303819293e+00 1.3297639199200000e-02
ITEM: ATOMS id type c_dr[1] c_dr[2] c_dr[3] 
3 3 -0.113597 -0.113298 -0.194777 
4 4 -0.0600146 -0.0598555 -0.121716 
5 5 0.121479 0.0306777 -0.0647854 
6 6 0.212088 0.0252957 -0.11181 
7 5 0.0310506 0.121448 -0.0648288 
8 6 0.0259717 0.212125 -0.111845 
9 5 0.0218383 0.021794 0.0520973 
10 6 0.0194557 0.0194195 0.170653 
1 1 -0.036095 -0.0359886 0.211335 
2 2 -0.0329433 -0.0328435 0.161394 
ITEM: TIMESTEP
3200
ITEM: NUMBER OF ATOMS
10
ITEM: BOX BOUNDS xy xz yz pp pp ss
0.0000000000000000e+00 4.0365952783983996e+00 1.3297639199200000e-02
0.0000000000000000e+00 4.0232976391991997e+00 1.3297639199200000e-02
9.0324748454682663e-02 1.9243255303819293e+00 1.3297639199200000e-02
ITEM: ATOMS id type c_dr[1] c_dr[2] c_dr[3] 
3 3 -0.113597 -0.113297 -0.194773 
4 4 -0.060015 -0.0598518 -0.121714 
5 5 0.121486 0.030679 -0.0647828 
6 6 0.212098 0.0252976 -0.111807 
7 5 0.0310526 0.121454 -0.0648256 
8 6 0.025974 0.212132 -0.111841 
9 5 0.021845 0.0218007 0.0520946 
10 6 0.0194626 0.0194266 0.170649 
1 1 -0.036106 -0.0359988 0.211329 
2 2 -0.032953 -0.0328529 0.161389 
ITEM: TIMESTEP
3300
ITEM: NUMBER OF ATOMS
10
ITEM: BOX BOUNDS xy xz yz pp pp ss
0.0000000000000000e+00 4.0365952783983996e+00 1.3297639199200000e-02
0.0000000000000000e+00 4.0232976391991997e+00 1.3297639199200000e-02
9.0324748454682663e-02 1.9243255303819293e+00 1.3297639199200000e-02
ITEM: ATOMS id type c_dr[1] c_dr[2] c_dr[3] 
3 3 -0.113598 -0.113297 -0.194769 
4 4 -0.0600131 -0.0598509 -0.121711 
5 5 0.121493 0.0306801 -0.0647806 
6 6 0.212106 0.0252991 -0.111804 
7 5 0.0310544 0.121459 -0.0648227 
8 6 0.0259762 0.212138 -0.111838 
9 5 0.0218507 0.0218065 0.0520923 
10 6 0.0194688 0.0194327 0.170645 
1 1 -0.0361154 -0.0360074 0.211324 
2 2 -0.0329617 -0.0328607 0.161385 
ITEM: TIMESTEP
3400
ITEM: NUMBER OF ATOMS
10
ITEM: BOX BOUNDS xy xz yz pp pp ss
0.0000000000000000e+00 4.0365952783983996e+00 1.3297639199200000e-02
0.0000000000000000e+00 4.0232976391991997e+00 1.3297639199200000e-02
9.0324748454682663e-02 1.9243255303819293e+00 1.3297639199200000e-02
ITEM: ATOMS id type c_dr[1] c_dr[2] c_dr[3] 
3 3 -0.113598 -0.113297 -0.194766 
4 4 -0.0600122 -0.0598497 -0.12171 
5 5 0.121497 0.0306809 -0.0647791 
6 6 0.212113 0.0253001 -0.111802 
7 5 0.0310558 0.121463 -0.0648207 
8 6 0.0259778 0.212143 -0.111836 
9 5 0.0218549 0.0218107 0.0520906 
10 6 0.0194731 0.0194371 0.170643 
1 1 -0.036122 -0.0360134 0.211321 
2 2 -0.0329677 -0.0328661 0.161382 
ITEM: TIMESTEP
3500
ITEM: NUMBER OF ATOMS
10
ITEM: BOX BOUNDS xy xz yz pp pp ss
0.0000000000000000e+00 4.0365952783983996e+00 1.3297639199200000e-02
0.0000000000000000e+00 4.0232976391991997e+00 1.3297639199200000e-02
9.0324748454682663e-02 1.9243255303819293e+00 1.3297639199200000e-02
ITEM: ATOMS id type c_dr[1] c_dr[2] c_dr[3] 
3 3 -0.113599 -0.113296 -0.194764 
4 4 -0.0600114 -0.0598486 -0.121709 
5 5 0.121502 0.0306815 -0.0647777 
6 6 0.212119 0.025301 -0.111801 
7 5 0.0310571 0.121466 -0.0648187 
8 6 0.0259794 0.212147 -0.111834 
9 5 0.0218588 0.0218146 0.052089 
10 6 0.0194772 0.0194412 0.17064 
1 1 -0.0361283 -0.0360189 0.211318 
2 2 -0.0329734 -0.0328712 0.161379 
ITEM: TIMESTEP
3600
ITEM: NUMBER OF ATOMS
10
ITEM: BOX BOUNDS xy xz yz pp pp ss
0.0000000000000000e+00 4.0365952783983996e+00 1.3297639199200000e-02
0.0000000000000000e+00 4.0232976391991997e+00 1.3297639199200000e-02
9.0324748454682663e-02 1.9243255303819293e+00 1.3297639199200000e-02
ITEM: ATOMS id type c_dr[1] c_dr[2] c_dr[3] 
3 3 -0.113599 -0.113296 -0.194762 
4 4 -0.0600108 -0.0598477 -0.121708 
5 5 0.121505 0.0306819 -0.0647768 
6 6 0.212123 0.0253016 -0.111799 
7 5 0.0310582 0.121468 -0.0648173 
8 6 0.0259806 0.212149 -0.111832 
9 5 0.0218616 0.0218174 0.0520879 
10 6 0.0194802 0.0194441 0.170638 
1 1 -0.0361328 -0.0360229 0.211316 
2 2 -0.0329775 -0.0328747 0.161377 
ITEM: TIMESTEP
3700
ITEM: NUMBER OF ATOMS
10
ITEM: BOX BOUNDS xy xz yz pp pp ss
0.0000000000000000e+00 4.0365952783983996e+00 1.3297639199200000e-02
0.0000000000000000e+00 4.0232976391991997e+00 1.3297639199200000e-02
9.0324748454682663e-02 1.9243255303819293e+00 1.3297639199200000e-02
ITEM: ATOMS id type c_dr[1] c_dr[2] c_dr[3] 
3 3 -0.113599 -0.113296 -0.194761 
4 4 -0.0600103 -0.059847 -0.121707 
5 5 0.121508 0.0306822 -0.0647761 
6 6 0.212127 0.025302 -0.111799 
7 5 0.0310591 0.12147 -0.0648161 
8 6 0.0259817 0.212151 -0.111831 
9 5 0.0218639 0.0218197 0.052087 
10 6 0.0194826 0.0194466 0.170637 
1 1 -0.0361366 -0.0360261 0.211314 
2 2 -0.032981 -0.0328776 0.161376 
ITEM: TIMESTEP
3800
ITEM: NUMBER OF ATOMS
10
ITEM: BOX BOUNDS xy xz yz pp pp ss
0.0000000000000000e+00 4.0365952783983996e+00 1.3297639199200000e-02
0.0000000000000000e+00 4.0232976391991997e+00 1.3297639199200000e-02
9.0324748454682663e-02 1.9243255303819293e+00 1.3297639199200000e-02
ITEM: ATOMS id type c_dr[1] c_dr[2] c_dr[3] 
3 3 -0.1136 -0.113295 -0.19476 
4 4 -0.06001 -0.0598465 -0.121706 
5 5 0.12151 0.0306824 -0.0647756 
6 6 0.212129 0.0253023 -0.111798 
7 5 0.0310598 0.121471 -0.0648152 
8 6 0.0259825 0.212152 -0.11183 
9 5 0.0218655 0.0218213 0.0520864 
10 6 0.0194843 0.0194483 0.170636 
1 1 -0.0361394 -0.0360283 0.211313 
2 2 -0.0329835 -0.0328797 0.161374 
ITEM: TIMESTEP
3900
ITEM: NUMBER OF ATOMS
10
ITEM: BOX BOUNDS xy xz yz pp pp ss
0.0000000000000000e+00 4.0365952783983996e+00 1.3297639199200000e-02
0.0000000000000000e+00 4.0232976391991997e+00 1.3297639199200000e-02
9.0324748454682663e-02 1.9243255303819293e+00 1.3297639199200000e-02
ITEM: ATOMS id type c_dr[1] c_dr[2] c_dr[3] 
3 3 -0.1136 -0.113295 -0.194759 
4 4 -0.0600098 -0.059846 -0.121706 
5 5 0.121512 0.0306825 -0.0647753 
6 6 0.212132 0.0253025 -0.111798 
7 5 0.0310604 0.121472 -0.0648144 
8 6 0.0259832 0.212153 -0.111829 
9 5 0.0218668 0.0218226 0.0520859 
10 6 0.0194857 0.0194497 0.170635 
1 1 -0.0361417 -0.0360301 0.211312 
2 2 -0.0329856 -0.0328813 0.161373 
ITEM: TIMESTEP
4000
ITEM: NUMBER OF ATOMS
10
ITEM: BOX BOUNDS xy xz yz pp pp ss
0.0000000000000000e+00 4.0365952783983996e+00 1.3297639199200000e-02
0.0000000000000000e+00 4.0232976391991997e+00 1.3297639199200000e-02
9.0324748454682663e-02 1.9243255303819293e+00 1.3297639199200000e-02
ITEM: ATOMS id type c_dr[1] c_dr[2] c_dr[3] 
3 3 -0.1136 -0.113295 -0.194759 
4 4 -0.0600095 -0.0598458 -0.121705 
5 5 0.121514 0.0306824 -0.0647751 
6 6 0.212134 0.0253025 -0.111797 
7 5 0.031061 0.121473 -0.0648137 
8 6 0.0259837 0.212154 -0.111829 
9 5 0.0218678 0.0218236 0.0520855 
10 6 0.0194868 0.0194507 0.170635 
1 1 -0.0361435 -0.0360314 0.211311 
2 2 -0.0329872 -0.0328824 0.161373 
ITEM: TIMESTEP
4100
ITEM: NUMBER OF ATOMS
10
ITEM: BOX BOUNDS xy xz yz pp pp ss
0.0000000000000000e+00 4.0365952783983996e+00 1.3297639199200000e-02
0.0000000000000000e+00 4.0232976391991997e+00 1.3297639199200000e-02
9.0324748454682663e-02 1.9243255303819293e+00 1.3297639199200000e-02
ITEM: ATOMS id type c_dr[1] c_dr[2] c_dr[3] 
3 3 -0.113601 -0.113294 -0.194758 
4 4 -0.0600095 -0.0598454 -0.121705 
5 5 0.121515 0.0306824 -0.064775 
6 6 0.212136 0.0253025 -0.111797 
7 5 0.0310614 0.121473 -0.0648132 
8 6 0.0259842 0.212154 -0.111828 
9 5 0.0218685 0.0218244 0.0520852 
10 6 0.0194875 0.0194515 0.170634 
1 1 -0.0361447 -0.0360322 0.21131 
2 2 -0.0329883 -0.0328832 0.161372 
ITEM: TIMESTEP
4200
ITEM: NUMBER OF ATOMS
10
ITEM: BOX BOUNDS xy xz yz pp pp ss
0.0000000000000000e+00 4.0365952783983996e+00 1.3297639199200000e-02
0.0000000000000000e+00 4.0232976391991997e+00 1.3297639199200000e-02
9.0324748454682663e-02 1.9243255303819293e+00 1.3297639199200000e-02
ITEM: ATOMS id type c_dr[1] c_dr[2] c_dr[3] 
3 3 -0.113601 -0.113294 -0.194758 
4 4 -0.0600093 -0.0598453 -0.121705 
5 5 0.121516 0.0306823 -0.064775 
6 6 0.212137 0.0253025 -0.111797 
7 5 0.0310617 0.121473 -0.0648129 
8 6 0.0259845 0.212154 -0.111828 
9 5 0.021869 0.0218248 0.052085 
10 6 0.019488 0.019452 0.170634 
1 1 -0.0361457 -0.0360328 0.21131 
2 2 -0.0329892 -0.0328837 0.161372 
ITEM: TIMESTEP
4300
ITEM: NUMBER OF ATOMS
10
ITEM: BOX BOUNDS xy xz yz pp pp ss
0.0000000000000000e+00 4.0365952783983996e+00 1.3297639199200000e-02
0.0000000000000000e+00 4.0232976391991997e+00 1.3297639199200000e-02
9.0324748454682663e-02 1.9243255303819293e+00 1.3297639199200000e-02
ITEM: ATOMS id type c_dr[1] c_dr[2] c_dr[3] 
3 3 -0.113601 -0.113294 -0.194758 
4 4 -0.0600094 -0.0598451 -0.121705 
5 5 0.121516 0.0306823 -0.064775 
6 6 0.212138 0.0253025 -0.111797 
7 5 0.031062 0.121473 -0.0648126 
8 6 0.0259848 0.212154 -0.111828 
9 5 0.0218693 0.0218252 0.0520849 
10 6 0.0194883 0.0194524 0.170634 
1 1 -0.0361464 -0.0360332 0.21131 
2 2 -0.0329898 -0.0328841 0.161372 
ITEM: TIMESTEP