LAMMPS (7 Sep 2016)
# Input file for lammps simulation using Isotropic-anharmonic Shell Model
# proposed by Vielma and Schneider based on PBE Generalized Gradient
# Approximation(GGA) to Density Functional Theory(DFT):
# [Vielma Schneider 2013](http://dx.doi.org/10.1063/1.4827475)

# Vishal Boddu, June 2016

# ------------------------ INITIALIZATION ---------------------------------

units 		metal
dimension	3
boundary	p	p	s
atom_style	full

# ----------------------- ATOM DEFINITION ----------------------------

fix csinfo all property/atom i_CSID
read_data atom.data fix csinfo NULL CS-Info
  orthogonal box = (0 0 0) to (4.01 4.01 4.01)
  2 by 2 by 2 MPI processor grid
  reading atoms ...
  10 atoms
  scanning bonds ...
  1 = max bonds/atom
  reading bonds ...
  5 bonds
  1 = max # of 1-2 neighbors
  0 = max # of 1-3 neighbors
  0 = max # of 1-4 neighbors
  1 = max # of special neighbors
WARNING: Proc sub-domain size < neighbor skin, could lead to lost atoms (/tmp/dan/spack-stage/spack-stage-5I_aA6/lammps-feature-CORESHELL-pol/src/domain.cpp:936)

#change_box all x scale ${a} y scale ${b} z scale ${c} remap
#change_box all triclinic xy delta ${XY} xz delta ${XZ} yz delta ${YZ} remap
#change_box all triclinic xy delta 0.0 xz delta 0.0 yz delta 0.0 remap

group cores type 1 3 5
5 atoms in group cores
group shells type 2 4 6
5 atoms in group shells

neighbor 0.5 bin
neigh_modify delay 10 check yes
comm_modify vel yes

# ------------------------ FORCE FIELDS ------------------------------

#kspace_style ewald 1.0e-6
#pair_style   born/coul/long/cs 7.0
pair_style born/coul/wolf/cs 0.25 16 14.5

#------------------------ A,  rho, sigma=0,     C,      D
pair_coeff	*	*	 0.0000	1.0000	0.000	0.0000	0.000
pair_coeff	2	6	1588.36	0.3553	0.000	0.0000	0.000
pair_coeff	4	6	3131.25	0.2591	0.000	0.0000	0.000
pair_coeff	6	6	2641.41	0.3507	0.000	535.37	0.000
pair_modify tail no

bond_style class2
bond_coeff	1	0.0	155.820	0.0		   0.0000000
bond_coeff	2	0.0	166.275	0.0		 20.83333333
bond_coeff	3	0.0	 23.155	0.0		274.96833333
change_box all triclinic xy delta 0.0132976391992 yz delta 0.0132976391992 xz delta 0.0132976391992 remap
  triclinic box = (0 0 -0.00060158) to (4.01 4.01 2.0056) with tilt (0 0 0)
  triclinic box = (0 0 -0.000802201) to (4.01 4.01 2.0058) with tilt (0.0132976 0 0)
  triclinic box = (0 0 -0.00100286) to (4.01 4.01 2.006) with tilt (0.0132976 0 0.0132976)
  triclinic box = (0 0 -0.00120356) to (4.01 4.01 2.0062) with tilt (0.0132976 0.0132976 0.0132976)
compute dr all displace/atom
thermo 50
thermo_style custom step etotal epair evdwl ecoul elong ebond fnorm lx ly lz temp press pxx pyy pzz
dump dump_positions all atom 100 atomdump
dump dump_displace all custom 100 displdump  id type c_dr[1] c_dr[2] c_dr[3]
fix ef all efield -0.00288675134595 -0.00288675134595 -0.00288675134595
fix_modify ef energy yes
min_style fire
minimize 0.0 1e-06 20000 100000
WARNING: Resetting reneighboring criteria during minimization (/tmp/dan/spack-stage/spack-stage-5I_aA6/lammps-feature-CORESHELL-pol/src/min.cpp:168)
Neighbor list info ...
  1 neighbor list requests
  update every 1 steps, delay 0 steps, check yes
  max neighbors/atom: 2000, page size: 100000
  master list distance cutoff = 16.5
  ghost atom cutoff = 16.5
  binsize = 8.25 -> bins = 1 1 1
Memory usage per processor = 9.02282 Mbytes
Step TotEng E_pair E_vdwl E_coul E_long E_bond Fnorm Lx Ly Lz Temp Press Pxx Pyy Pzz 
       0   -112.48944   -112.48204    8.2656887   -120.74773            0            0    23.982295         4.01         4.01    2.0070059            0   -586009.67   -772752.53   -772710.88    -212565.6 
      50   -113.69064   -115.18751    10.230548   -125.41806            0    1.3948643    2.6027681         4.01         4.01    2.0070059    94.923672   -471555.99   -559385.77    -559335.3   -295946.91 
     100   -113.98839   -115.86707    11.568698   -127.43576            0    1.8819285     2.075228         4.01         4.01    2.0070059    4.5856733   -383581.83    -462031.3   -461978.48   -226735.71 
     150   -114.05874   -116.03239    12.280779   -128.31317            0    1.9673955    2.0601532         4.01         4.01    2.0070059    12.704893   -328536.26   -419189.39   -419135.22   -147284.17 
     200   -114.12331   -116.26679    12.774067   -129.04086            0    2.1479147    1.5315513         4.01         4.01    2.0070059    3.4804571   -296858.24   -383504.05   -383448.87   -123621.79 
     250   -114.15807   -116.42942    13.119713   -129.54914            0    2.2779929    1.2142483         4.01         4.01    2.0070059    1.5532733   -274844.23   -358368.65   -358312.77   -107851.28 
     300   -114.19435   -116.64684    13.629157     -130.276            0    2.4578681   0.89828748         4.01         4.01    2.0070059    2.6179223   -242023.63   -322168.41   -322111.51   -81790.978 
     350   -114.21149   -116.73884    13.992432   -130.73127            0    2.5311566   0.99845631         4.01         4.01    2.0070059    3.9787925   -216505.99   -299160.84   -299103.23   -51253.888 
     400   -114.22617   -116.90067    14.226783   -131.12745            0    2.6800949   0.72404062         4.01         4.01    2.0070059    2.4994199   -204646.32   -279015.71   -278957.02   -55966.217 
     450   -114.23318   -116.94347    14.391433   -131.33491            0    2.7168457   0.54113657         4.01         4.01    2.0070059    1.7296493   -193435.65   -268242.66   -268183.06   -43881.207 
     500   -114.24292   -116.98751     14.63774   -131.62525            0    2.7532765   0.59606049         4.01         4.01    2.0070059  0.013114724   -175986.36    -253244.5   -253183.39   -21531.206 
     550   -114.24864   -117.02308    14.835019   -131.85809            0    2.7831091    1.0177649         4.01         4.01    2.0070059   0.18732577   -162115.07   -241246.87   -241183.73   -3914.6333 
     600   -114.25617   -117.10868    14.953237   -132.06191            0    2.8616243    0.4476386         4.01         4.01    2.0070059  0.027196699    -156585.9   -230333.35   -230264.59   -9159.7593 
     650   -114.26419   -117.16656    15.064054   -132.23062            0    2.9117397   0.47466232         4.01         4.01    2.0070059  0.069045185   -150530.03   -221360.27   -221285.22   -8944.6091 
     700   -114.27437   -117.19382    15.203426   -132.39725            0    2.9291273   0.50433738         4.01         4.01    2.0070059   0.11721786    -141082.4    -212440.3   -212357.41    1550.5163 
     750   -114.28356   -117.24292    15.374989   -132.61791            0     2.961431    0.5722434         4.01         4.01    1.8340008    7.1143429   -142412.02   -218789.74   -218684.64    10238.308 
     800   -114.30818   -117.29061     15.51655   -132.80716            0    2.9929976   0.58590137         4.01         4.01    1.8340008   0.22891524   -133927.78   -208483.75   -208373.11    15073.532 
     850   -114.32651   -117.34759    15.665607   -133.01319            0    3.0315518   0.60407991         4.01         4.01    1.8340008   0.75971641   -125755.82   -196635.94   -196524.06    15892.542 
     900   -114.33873   -117.35655    15.797264   -133.15382            0    3.0282288   0.53571519         4.01         4.01    1.8340008    1.1454961   -116841.47   -189160.85   -189058.39    27694.826 
     950   -114.34946   -117.41304    15.877347   -133.29039            0    3.0746435    0.4843863         4.01         4.01    1.8340008   0.87264103   -115083.43   -182333.59   -182243.57    19326.865 
    1000   -114.35272    -117.4493    15.968681   -133.41798            0    3.1018685   0.44471495         4.01         4.01    1.8340008    6.1489918   -111962.31   -176937.07   -176871.14    17921.283 
    1050   -114.36316   -117.45729    16.001618   -133.45891            0    3.1067109   0.33097023         4.01         4.01    1.8340008 0.0094758448   -111244.57   -175561.79   -175508.23    17336.303 
    1100   -114.36706   -117.47934    16.034742   -133.51408            0     3.125068   0.33070107         4.01         4.01    1.8340008  0.012735328   -111810.26   -174236.49   -174202.74     13008.44 
    1150    -114.3685   -117.48296    16.048448    -133.5314            0    3.1273203   0.23864822         4.01         4.01    1.8340008  0.033327641    -111852.3   -174251.47   -174228.14    12922.696 
    1200   -114.37002   -117.48651    16.065217   -133.55173            0    3.1295024   0.16699723         4.01         4.01    1.8340008  0.008991815   -111889.95   -174422.81   -174415.15    13168.104 
    1250   -114.37011   -117.49776    16.063626   -133.56138            0    3.1398176    0.1844747         4.01         4.01    1.8340008   0.80703057   -113620.43   -174749.92   -174749.55    8638.1825 
    1300    -114.3713   -117.50886    16.062995   -133.57185            0    3.1501617   0.29225202         4.01         4.01    1.8340008   0.51828741   -115412.02   -175073.83   -175074.17    3911.9489 
    1350   -114.37232    -117.5026    16.071533   -133.57413            0    3.1435031  0.098673267         4.01         4.01    1.8340008  0.035989741    -115022.8   -176210.15   -176241.74    7383.4807 
    1400   -114.37264   -117.50814    16.068922   -133.57706            0    3.1488154   0.10860897         4.01         4.01    1.8340008 0.00098597215   -116025.43   -176263.61   -176285.09     4472.413 
    1450   -114.37287   -117.50688    16.069808   -133.57668            0    3.1473668  0.086068113         4.01         4.01    1.8340008 0.00022016389   -116352.83   -177173.49   -177233.44     5348.451 
    1500   -114.37284   -117.51184    16.066827   -133.57866            0    3.1522087   0.10109247         4.01         4.01    1.8340008   0.16079924    -117262.8   -177058.77   -177077.75    2348.1115 
    1550   -114.37309    -117.5116    16.067576   -133.57917            0    3.1519079  0.049069062         4.01         4.01    1.8340008  0.017669602   -117420.18   -177499.04   -177545.57     2784.066 
    1600   -114.37313   -117.51273      16.0672   -133.57993            0    3.1529988    0.0544105         4.01         4.01    1.8340008  0.036653491   -117729.82   -177579.58   -177609.24    1999.3805 
    1650    -114.3732   -117.51333    16.067466   -133.58079            0     3.153561  0.036980391         4.01         4.01    1.8340008    0.0249211   -117951.03   -177975.24   -178064.33    2186.4712 
    1700   -114.37327   -117.51448     16.06713   -133.58161            0    3.1546905  0.033245397         4.01         4.01    1.8340008 0.0010237821   -118237.37   -178022.56   -178065.29    1375.7414 
    1750   -114.37329   -117.51475    16.066969   -133.58172            0    3.1549483  0.024309013         4.01         4.01    1.8340008   0.00163629   -118368.11   -178173.66   -178257.36    1326.7046 
    1800   -114.37331   -117.51508    16.067132   -133.58221            0     3.155271   0.04273742         4.01         4.01    1.8340008 0.00020146701   -118489.54   -178384.98   -178614.37    1530.7134 
    1850   -114.37332   -117.51568     16.06708   -133.58276            0     3.155869  0.018275517         4.01         4.01    1.8340008 0.0012558711   -118604.77   -178300.11   -178368.14    853.94552 
    1900   -114.37333   -117.51612    16.067244   -133.58336            0    3.1563075   0.01606335         4.01         4.01    1.8340008 0.0012687902   -118696.59   -178360.95   -178509.43    780.60624 
    1950   -114.37334   -117.51646    16.067351   -133.58381            0    3.1566507  0.014604014         4.01         4.01    1.8340008 0.00071112331   -118772.38    -178428.6   -178439.96    551.43055 
    2000   -114.37334   -117.51658    16.067311   -133.58389            0    3.1567722  0.014602535         4.01         4.01    1.8340008 0.0015206778   -118824.26    -178486.4   -178439.59    453.19633 
    2050   -114.37335   -117.51691    16.067476   -133.58438            0    3.1570979  0.012710047         4.01         4.01    1.8340008 4.2048779e-05   -118879.01   -178405.99   -178637.58    406.54101 
    2100   -114.37335   -117.51708    16.067541   -133.58462            0    3.1572755  0.010311496         4.01         4.01    1.8340008 0.00013979515   -118917.44   -178444.73   -178635.73     328.1315 
    2150   -114.37336   -117.51718    16.067551   -133.58474            0    3.1573785 0.0084184784         4.01         4.01    1.8340008 6.941554e-05   -118946.58   -178476.46   -178633.68    270.40199 
    2200   -114.37336   -117.51743    16.067713   -133.58515            0     3.157631 0.0099355332         4.01         4.01    1.8340008 1.9467786e-05   -118986.32   -178455.39   -178691.23    187.67035 
    2250   -114.37336    -117.5175    16.067748   -133.58525            0    3.1577003 0.0059135774         4.01         4.01    1.8340008 6.662836e-05   -119006.15   -178542.48   -178627.64     151.6696 
    2300   -114.37336   -117.51768    16.067887   -133.58557            0    3.1578834 0.0060163361         4.01         4.01    1.8340008 2.340117e-05    -119033.4   -178569.07      -178622    90.883711 
    2350   -114.37336   -117.51776    16.067928   -133.58569            0    3.1579593  0.004452039         4.01         4.01    1.8340008 9.8841913e-06   -119050.15   -178558.35   -178654.18    62.084782 
    2400   -114.37336   -117.51784    16.068003   -133.58584            0    3.1580396 0.0038164144         4.01         4.01    1.8340008 2.9505325e-05   -119062.82   -178548.74   -178674.73    34.996415 
    2450   -114.37336   -117.51788    16.068018   -133.58589            0    3.1580786 0.0032614822         4.01         4.01    1.8340008 6.4592818e-05   -119074.17   -178565.63   -178671.38    14.501272 
    2500   -114.37336   -117.51795    16.068068   -133.58601            0      3.15815 0.0028859298         4.01         4.01    1.8340008 4.1409542e-05   -119085.99   -178572.27   -178677.09   -8.6172558 
    2550   -114.37336     -117.518      16.0681    -133.5861            0    3.1582081 0.0048349831         4.01         4.01    1.8340008 0.00021830771   -119097.37   -178534.23   -178724.83   -33.046971 
    2600   -114.37336   -117.51804    16.068155   -133.58619            0    3.1582445 0.0056761628         4.01         4.01    1.8340008 3.7893925e-06   -119103.39   -178618.14   -178647.53   -44.502522 
    2650   -114.37336   -117.51808    16.068169   -133.58624            0    3.1582833 0.0023605399         4.01         4.01    1.8340008 1.6323931e-06   -119109.86   -178586.77   -178684.81   -58.015585 
    2700   -114.37336    -117.5181    16.068191   -133.58629            0    3.1583099 0.0017355788         4.01         4.01    1.8340008 7.8138846e-05   -119113.43   -178572.49   -178702.02    -65.77865 
    2750   -114.37336   -117.51814    16.068237   -133.58638            0    3.1583497 0.0028601049         4.01         4.01    1.8340008 8.453758e-05   -119118.74   -178555.13   -178723.23   -77.867228 
    2800   -114.37336   -117.51817    16.068269   -133.58644            0    3.1583812 0.0015663352         4.01         4.01    1.8340008 8.1193571e-07   -119122.65   -178584.62    -178695.9   -87.427789 
    2850   -114.37336   -117.51819     16.06829   -133.58648            0    3.1583983 0.0011941349         4.01         4.01    1.8340008 9.4931686e-06   -119125.25   -178583.17   -178699.74   -92.842536 
    2900   -114.37336   -117.51821    16.068309   -133.58652            0    3.1584248 0.0017543858         4.01         4.01    1.8340008 3.385572e-05   -119128.96   -178566.64   -178719.11    -101.1368 
    2950   -114.37336   -117.51823    16.068334   -133.58656            0    3.1584411 0.0013093027         4.01         4.01    1.8340008 1.1868205e-06   -119130.85   -178587.24   -178699.44   -105.86154 
    3000   -114.37336   -117.51825    16.068357    -133.5866            0    3.1584571 0.0021609438         4.01         4.01    1.8340008 2.8966191e-05   -119132.56   -178560.51   -178727.13   -110.04588 
    3050   -114.37336   -117.51826    16.068361   -133.58662            0    3.1584668 0.00073303261         4.01         4.01    1.8340008 2.3944894e-06   -119134.46   -178582.66    -178706.7   -114.01008 
    3100   -114.37336   -117.51827    16.068378   -133.58665            0    3.1584801 0.0013858359         4.01         4.01    1.8340008 4.1168103e-07   -119135.82   -178589.86   -178700.14   -117.46156 
    3150   -114.37336   -117.51828    16.068384   -133.58666            0    3.1584877 0.00056156264         4.01         4.01    1.8340008 2.2102454e-08   -119137.12   -178576.06   -178715.06   -120.25185 
    3200   -114.37336   -117.51828     16.06839   -133.58667            0     3.158494 0.00060029101         4.01         4.01    1.8340008 1.1289396e-06   -119138.16   -178574.98   -178717.09     -122.403 
    3250   -114.37336   -117.51829    16.068401   -133.58669            0    3.1585033 0.0014212558         4.01         4.01    1.8340008 9.8610121e-06    -119139.1   -178566.83   -178725.81   -124.66479 
    3300   -114.37336    -117.5183    16.068407    -133.5867            0    3.1585083 0.00033309347         4.01         4.01    1.8340008 7.7156598e-10   -119139.84    -178579.5   -178713.48   -126.51897 
    3350   -114.37336    -117.5183    16.068416   -133.58672            0    3.1585146 0.0004027518         4.01         4.01    1.8340008 4.5973876e-07   -119140.43   -178575.49   -178717.67    -128.1158 
    3400   -114.37336   -117.51831    16.068418   -133.58672            0    3.1585176 0.00026871292         4.01         4.01    1.8340008 4.4454284e-07   -119140.98   -178579.16   -178714.45    -129.3284 
    3450   -114.37336   -117.51831    16.068424   -133.58673            0    3.1585223 0.00025261889         4.01         4.01    1.8340008 3.9778999e-07   -119141.48   -178576.74   -178717.09   -130.62024 
    3500   -114.37336   -117.51832     16.06843   -133.58675            0    3.1585278 0.00020269924         4.01         4.01    1.8340008 1.1819655e-07   -119142.03   -178578.17   -178715.94   -131.98553 
    3550   -114.37336   -117.51832    16.068435   -133.58675            0    3.1585314 0.00017054034         4.01         4.01    1.8340008 5.530544e-08   -119142.49   -178577.86   -178716.48   -133.13203 
    3600   -114.37336   -117.51832    16.068437   -133.58676            0    3.1585336 0.00014832705         4.01         4.01    1.8340008 1.0543116e-07   -119142.81   -178577.57   -178716.97   -133.87838 
    3650   -114.37336   -117.51832    16.068443   -133.58677            0    3.1585374 0.00011721271         4.01         4.01    1.8340008 1.7508495e-07   -119143.13   -178576.83   -178717.74   -134.82568 
    3700   -114.37336   -117.51833    16.068444   -133.58677            0    3.1585387 0.00010404133         4.01         4.01    1.8340008 1.9960394e-07   -119143.43   -178576.65    -178718.2   -135.42523 
    3750   -114.37336   -117.51833    16.068447   -133.58678            0    3.1585412 9.4594657e-05         4.01         4.01    1.8340008 6.6976644e-09   -119143.68   -178576.25   -178718.75   -136.02272 
    3800   -114.37336   -117.51833    16.068448   -133.58678            0    3.1585424 9.5140725e-05         4.01         4.01    1.8340008 1.3627988e-07   -119143.87   -178575.86   -178719.25   -136.48774 
    3850   -114.37336   -117.51833     16.06845   -133.58678            0    3.1585443 9.8254693e-05         4.01         4.01    1.8340008 1.1676675e-07   -119144.08   -178576.64   -178718.57     -137.021 
    3900   -114.37336   -117.51833    16.068452   -133.58679            0    3.1585458 7.3386039e-05         4.01         4.01    1.8340008 4.9328197e-08   -119144.18   -178575.37   -178719.85   -137.32037 
    3950   -114.37336   -117.51833    16.068454   -133.58679            0    3.1585472 5.7397938e-05         4.01         4.01    1.8340008 6.7610246e-08   -119144.32    -178575.3   -178719.97   -137.70074 
    4000   -114.37336   -117.51834    16.068455   -133.58679            0    3.1585481 6.403705e-05         4.01         4.01    1.8340008 3.014179e-10   -119144.46   -178575.61   -178719.73   -138.04327 
    4050   -114.37336   -117.51834    16.068456   -133.58679            0    3.1585489 8.0210321e-05         4.01         4.01    1.8340008 4.8155476e-08   -119144.53   -178574.37   -178721.01     -138.222 
    4100   -114.37336   -117.51834    16.068457   -133.58679            0    3.1585495 5.189442e-05         4.01         4.01    1.8340008 1.238907e-08    -119144.6   -178574.36   -178721.03   -138.40581 
    4150   -114.37336   -117.51834    16.068458   -133.58679            0      3.15855 3.8570014e-05         4.01         4.01    1.8340008 8.7991491e-09   -119144.67   -178574.35   -178721.12   -138.55376 
    4200   -114.37336   -117.51834    16.068458    -133.5868            0    3.1585508 3.5770537e-05         4.01         4.01    1.8340008 5.4960085e-09   -119144.77   -178574.56   -178720.94   -138.79783 
    4250   -114.37336   -117.51834    16.068459    -133.5868            0    3.1585511 2.6900713e-05         4.01         4.01    1.8340008 3.5955013e-09    -119144.8   -178574.03    -178721.5   -138.86516 
    4300   -114.37336   -117.51834    16.068459    -133.5868            0    3.1585515 2.1800414e-05         4.01         4.01    1.8340008 1.308532e-09   -119144.84   -178573.95   -178721.61   -138.97477 
    4350   -114.37336   -117.51834     16.06846    -133.5868            0     3.158552 1.7813144e-05         4.01         4.01    1.8340008 1.9522212e-08    -119144.9    -178573.7   -178721.88   -139.11325 
    4400   -114.37336   -117.51834     16.06846    -133.5868            0    3.1585526 5.8850739e-05         4.01         4.01    1.8340008 9.4155376e-10   -119144.95   -178573.94   -178721.61   -139.30833 
    4450   -114.37336   -117.51834    16.068461    -133.5868            0    3.1585526 1.3001995e-05         4.01         4.01    1.8340008 1.9248207e-09   -119144.96   -178573.32   -178722.27   -139.29346 
    4500   -114.37336   -117.51834    16.068461    -133.5868            0    3.1585527 1.2950414e-05         4.01         4.01    1.8340008 1.7269349e-09   -119144.98   -178573.12   -178722.48    -139.3309 
    4550   -114.37336   -117.51834    16.068461    -133.5868            0     3.158553 1.0774788e-05         4.01         4.01    1.8340008 3.3911103e-10      -119145   -178572.92   -178722.68   -139.40281 
    4600   -114.37336   -117.51834    16.068462    -133.5868            0    3.1585532 1.0130796e-05         4.01         4.01    1.8340008 1.3434541e-10   -119145.02   -178572.73   -178722.88   -139.45298 
    4650   -114.37336   -117.51834    16.068462    -133.5868            0    3.1585534 1.2165462e-05         4.01         4.01    1.8340008 3.2111415e-09   -119145.04   -178572.65   -178722.96   -139.51544 
    4700   -114.37336   -117.51834    16.068462    -133.5868            0    3.1585535 1.2269103e-05         4.01         4.01    1.8340008 1.1188731e-09   -119145.05   -178572.49   -178723.12   -139.54844 
    4750   -114.37336   -117.51834    16.068462    -133.5868            0    3.1585535 8.0787643e-06         4.01         4.01    1.8340008 2.0024514e-10   -119145.06   -178572.25   -178723.38   -139.54775 
    4800   -114.37336   -117.51834    16.068462    -133.5868            0    3.1585536 1.2079147e-05         4.01         4.01    1.8340008 2.3138323e-09   -119145.06   -178572.02   -178723.61   -139.55372 
    4850   -114.37336   -117.51834    16.068462    -133.5868            0    3.1585537  1.39431e-05         4.01         4.01    1.8340008 1.7517932e-09   -119145.07    -178571.8   -178723.83    -139.5767 
    4900   -114.37336   -117.51834    16.068462    -133.5868            0    3.1585538 6.6806489e-06         4.01         4.01    1.8340008 1.8341242e-11   -119145.08   -178571.81   -178723.82   -139.62256 
    4950   -114.37336   -117.51834    16.068462    -133.5868            0    3.1585539 1.6458805e-05         4.01         4.01    1.8340008 1.478156e-09   -119145.09    -178571.8   -178723.82   -139.65845 
    5000   -114.37336   -117.51834    16.068463    -133.5868            0    3.1585539 5.6615346e-06         4.01         4.01    1.8340008 5.9663399e-12   -119145.09   -178571.52    -178724.1   -139.63958 
    5050   -114.37336   -117.51834    16.068463    -133.5868            0    3.1585539 6.1240621e-06         4.01         4.01    1.8340008 1.9902664e-10   -119145.09    -178571.4   -178724.23   -139.65332 
    5100   -114.37336   -117.51834    16.068463    -133.5868            0    3.1585539 9.3186734e-06         4.01         4.01    1.8340008 2.514513e-10   -119145.09   -178571.19   -178724.44    -139.6518 
    5150   -114.37336   -117.51834    16.068463    -133.5868            0    3.1585539 5.841295e-06         4.01         4.01    1.8340008 5.5920722e-11    -119145.1   -178571.15   -178724.49    -139.6615 
    5200   -114.37336   -117.51834    16.068463    -133.5868            0     3.158554 5.9169281e-06         4.01         4.01    1.8340008 1.7365725e-10    -119145.1   -178571.05   -178724.59   -139.66503 
    5250   -114.37336   -117.51834    16.068463    -133.5868            0     3.158554 4.4104362e-06         4.01         4.01    1.8340008 4.8569331e-10    -119145.1   -178570.97   -178724.66   -139.67534 
    5300   -114.37336   -117.51834    16.068463    -133.5868            0     3.158554 7.5064744e-06         4.01         4.01    1.8340008 1.051007e-09    -119145.1   -178570.79   -178724.85   -139.67198 
    5350   -114.37336   -117.51834    16.068463    -133.5868            0     3.158554 2.4169915e-05         4.01         4.01    1.8340008 1.6695708e-10   -119145.11   -178570.91   -178724.71   -139.70455 
    5400   -114.37336   -117.51834    16.068463    -133.5868            0     3.158554 3.7948015e-06         4.01         4.01    1.8340008 1.032403e-10   -119145.11   -178570.65   -178724.98   -139.68593 
    5450   -114.37336   -117.51834    16.068463    -133.5868            0     3.158554 3.6722091e-06         4.01         4.01    1.8340008 1.2019833e-10   -119145.11   -178570.56   -178725.07    -139.6856 
    5500   -114.37336   -117.51834    16.068463    -133.5868            0     3.158554 3.3515001e-06         4.01         4.01    1.8340008 2.7036239e-11   -119145.11   -178570.46   -178725.17   -139.68877 
    5550   -114.37336   -117.51834    16.068463    -133.5868            0     3.158554 3.9769235e-06         4.01         4.01    1.8340008 1.2105304e-11   -119145.11   -178570.36   -178725.27   -139.68857 
    5600   -114.37336   -117.51834    16.068463    -133.5868            0     3.158554 3.0955177e-06         4.01         4.01    1.8340008 8.849799e-12   -119145.11    -178570.3   -178725.33   -139.69167 
    5650   -114.37336   -117.51834    16.068463    -133.5868            0     3.158554 7.6188069e-06         4.01         4.01    1.8340008 4.0625733e-10   -119145.11   -178570.16   -178725.48   -139.68745 
    5700   -114.37336   -117.51834    16.068463    -133.5868            0    3.1585541 6.4585865e-06         4.01         4.01    1.8340008 5.9899771e-12   -119145.11    -178570.2   -178725.43   -139.69755 
    5750   -114.37336   -117.51834    16.068463    -133.5868            0    3.1585541 3.4624033e-06         4.01         4.01    1.8340008 1.3888314e-11   -119145.11   -178570.07   -178725.56   -139.69292 
    5800   -114.37336   -117.51834    16.068463    -133.5868            0    3.1585541 8.9641214e-06         4.01         4.01    1.8340008 2.8278383e-10   -119145.11   -178569.95   -178725.69   -139.69018 
    5850   -114.37336   -117.51834    16.068463    -133.5868            0    3.1585541 5.1575613e-06         4.01         4.01    1.8340008 2.7750342e-10   -119145.11   -178569.93    -178725.7   -139.69242 
    5900   -114.37336   -117.51834    16.068463    -133.5868            0    3.1585541 2.4474468e-06         4.01         4.01    1.8340008 1.1483459e-11   -119145.11   -178569.91   -178725.72   -139.69537 
    5950   -114.37336   -117.51834    16.068463    -133.5868            0    3.1585541 2.6675354e-06         4.01         4.01    1.8340008 5.7669619e-13   -119145.11   -178569.86   -178725.78    -139.6963 
    6000   -114.37336   -117.51834    16.068463    -133.5868            0    3.1585541 2.8541438e-06         4.01         4.01    1.8340008 8.7336138e-14   -119145.11   -178569.77   -178725.86   -139.69536 
    6050   -114.37336   -117.51834    16.068463    -133.5868            0    3.1585541 2.0718564e-06         4.01         4.01    1.8340008 3.6011079e-11   -119145.11   -178569.75   -178725.89   -139.69608 
    6100   -114.37336   -117.51834    16.068463    -133.5868            0    3.1585541 2.5116083e-06         4.01         4.01    1.8340008 5.070318e-11   -119145.11   -178569.67   -178725.96   -139.69593 
    6150   -114.37336   -117.51834    16.068463    -133.5868            0    3.1585541 2.5084918e-06         4.01         4.01    1.8340008 4.0843076e-12   -119145.11   -178569.62   -178726.01   -139.69611 
    6200   -114.37336   -117.51834    16.068463    -133.5868            0    3.1585541 2.6068815e-06         4.01         4.01    1.8340008 3.1810263e-11   -119145.11   -178569.59   -178726.04   -139.69614 
    6250   -114.37336   -117.51834    16.068463    -133.5868            0    3.1585541 3.9128821e-06         4.01         4.01    1.8340008 5.6340892e-11   -119145.11   -178569.53   -178726.11   -139.69606 
    6300   -114.37336   -117.51834    16.068463    -133.5868            0    3.1585541 2.8705977e-06         4.01         4.01    1.8340008 5.9454683e-11   -119145.11   -178569.51   -178726.13   -139.69634 
    6350   -114.37336   -117.51834    16.068463    -133.5868            0    3.1585541 1.5346596e-06         4.01         4.01    1.8340008 3.511379e-11   -119145.11   -178569.47   -178726.17    -139.6968 
    6400   -114.37336   -117.51834    16.068463    -133.5868            0    3.1585541 2.8086228e-06         4.01         4.01    1.8340008 6.2752502e-11   -119145.11   -178569.41   -178726.22   -139.69673 
    6450   -114.37336   -117.51834    16.068463    -133.5868            0    3.1585541 1.4798988e-06         4.01         4.01    1.8340008 6.2399238e-11   -119145.11   -178569.41   -178726.23   -139.69694 
    6500   -114.37336   -117.51834    16.068463    -133.5868            0    3.1585541 1.7569379e-06         4.01         4.01    1.8340008 1.5031167e-11   -119145.11   -178569.36   -178726.28   -139.69688 
    6550   -114.37336   -117.51834    16.068463    -133.5868            0    3.1585541 1.972768e-06         4.01         4.01    1.8340008 1.1007221e-11   -119145.11   -178569.31   -178726.32    -139.6969 
    6600   -114.37336   -117.51834    16.068463    -133.5868            0    3.1585541 1.3054526e-06         4.01         4.01    1.8340008 5.8242765e-12   -119145.11    -178569.3   -178726.33   -139.69704 
    6650   -114.37336   -117.51834    16.068463    -133.5868            0    3.1585541 7.1841272e-06         4.01         4.01    1.8340008 9.7014795e-12   -119145.11    -178569.2   -178726.43   -139.69664 
    6700   -114.37336   -117.51834    16.068463    -133.5868            0    3.1585541 2.0946629e-06         4.01         4.01    1.8340008 8.8708084e-12   -119145.11   -178569.22   -178726.42   -139.69696 
    6750   -114.37336   -117.51834    16.068463    -133.5868            0    3.1585541 1.4339198e-06         4.01         4.01    1.8340008 1.1397624e-11   -119145.11    -178569.2   -178726.43   -139.69702 
    6800   -114.37336   -117.51834    16.068463    -133.5868            0    3.1585541 1.1235877e-06         4.01         4.01    1.8340008 1.0870006e-11   -119145.11   -178569.18   -178726.46   -139.69706 
    6824   -114.37336   -117.51834    16.068463    -133.5868            0    3.1585541 9.9518515e-07         4.01         4.01    1.8340008 1.3179789e-11   -119145.11   -178569.17   -178726.47   -139.69709 
Loop time of 16.4549 on 8 procs for 6824 steps with 10 atoms

28.3% CPU use with 8 MPI tasks x no OpenMP threads

Minimization stats:
  Stopping criterion = force tolerance
  Energy initial, next-to-last, final = 
         -112.48944341     -114.373362708     -114.373362708
  Force two-norm initial, final = 23.9823 9.95185e-07
  Force max component initial, final = 12.7041 3.48474e-07
  Final line search alpha, max atom move = 0 0
  Iterations, force evaluations = 6824 6824

MPI task timing breakdown:
Section |  min time  |  avg time  |  max time  |%varavg| %total
---------------------------------------------------------------
Pair    | 0.015843   | 1.0766     | 5.0556     | 153.6 |  6.54
Bond    | 0.0048455  | 0.0062876  | 0.0087571  |   1.9 |  0.04
Neigh   | 6.2514e-05 | 0.00022489 | 0.00048874 |   0.8 |  0.00
Comm    | 8.2193     | 12.557     | 14.651     |  64.8 | 76.31
Output  | 0.072977   | 0.077193   | 0.084693   |   1.1 |  0.47
Modify  | 0.0053605  | 0.00784    | 0.010539   |   2.6 |  0.05
Other   |            | 2.73       |            |       | 16.59

Nlocal:    1.25 ave 4 max 0 min
Histogram: 4 0 0 0 0 3 0 0 0 1
Nghost:    808.75 ave 810 max 806 min
Histogram: 1 0 0 0 0 3 0 0 0 4
Neighs:    331.375 ave 1702 max 0 min
Histogram: 5 1 0 1 0 0 0 0 0 1

Total # of neighbors = 2651
Ave neighs/atom = 265.1
Ave special neighs/atom = 1
Neighbor list builds = 1
Dangerous builds = 0
min_style quickmin
minimize 0.0 1e-06 20000 100000
WARNING: Resetting reneighboring criteria during minimization (/tmp/dan/spack-stage/spack-stage-5I_aA6/lammps-feature-CORESHELL-pol/src/min.cpp:168)
Memory usage per processor = 9.02352 Mbytes
Step TotEng E_pair E_vdwl E_coul E_long E_bond Fnorm Lx Ly Lz Temp Press Pxx Pyy Pzz 
    6824   -114.37336   -117.51834    16.068463    -133.5868            0    3.1585541 9.9518508e-07         4.01         4.01     1.890145            0   -115606.06   -173265.01   -173417.64   -135.54758 
    6825   -114.37336   -117.51834    16.068463    -133.5868            0    3.1585541 9.9518507e-07         4.01         4.01     1.890145 7.7047509e-13   -115606.06   -173265.01   -173417.64   -135.54758 
Loop time of 0.0166546 on 8 procs for 1 steps with 10 atoms

12.0% CPU use with 8 MPI tasks x no OpenMP threads

Minimization stats:
  Stopping criterion = force tolerance
  Energy initial, next-to-last, final = 
        -114.373362708     -114.373362708     -114.373362708
  Force two-norm initial, final = 9.95185e-07 9.95185e-07
  Force max component initial, final = 3.48474e-07 3.48474e-07
  Final line search alpha, max atom move = 0 0
  Iterations, force evaluations = 1 1

MPI task timing breakdown:
Section |  min time  |  avg time  |  max time  |%varavg| %total
---------------------------------------------------------------
Pair    | 9.535e-06  | 0.00077473 | 0.0051749  |   6.0 |  4.65
Bond    | 1.248e-06  | 3.5424e-06 | 1.0615e-05 |   0.2 |  0.02
Neigh   | 0          | 0          | 0          |   0.0 |  0.00
Comm    | 0.0010715  | 0.0073417  | 0.0091141  |   3.4 | 44.08
Output  | 0          | 0          | 0          |   0.0 |  0.00
Modify  | 1.583e-06  | 3.2409e-06 | 4.653e-06  |   0.1 |  0.02
Other   |            | 0.008531   |            |       | 51.23

Nlocal:    1.25 ave 4 max 0 min
Histogram: 4 0 0 0 0 3 0 0 0 1
Nghost:    808.75 ave 810 max 806 min
Histogram: 1 0 0 0 0 3 0 0 0 4
Neighs:    332.125 ave 1702 max 0 min
Histogram: 5 1 0 1 0 0 0 0 0 1

Total # of neighbors = 2657
Ave neighs/atom = 265.7
Ave special neighs/atom = 1
Neighbor list builds = 0
Dangerous builds = 0
unfix ef
fix ef all efield -0.0057735026919 -0.0057735026919 -0.0057735026919
fix_modify ef energy yes
min_style fire
minimize 0.0 1e-06 20000 100000
WARNING: Resetting reneighboring criteria during minimization (/tmp/dan/spack-stage/spack-stage-5I_aA6/lammps-feature-CORESHELL-pol/src/min.cpp:168)
Memory usage per processor = 9.02352 Mbytes
Step TotEng E_pair E_vdwl E_coul E_long E_bond Fnorm Lx Ly Lz Temp Press Pxx Pyy Pzz 
    6825   -114.38694   -117.51834    16.068463    -133.5868            0    3.1585541  0.045369408         4.01         4.01     1.890145            0   -115606.06   -173265.01   -173417.64   -135.54758 
    6850   -114.38692   -117.52364    16.080012   -133.60365            0     3.163878  0.033487279         4.01         4.01     1.890145  0.022437113    -115013.2   -172573.89   -172727.64    261.93876 
    6900   -114.38695     -117.525    16.080429   -133.60543            0    3.1652429  0.017019801         4.01         4.01     1.890145 0.0019433851   -115101.06   -172614.37   -172768.67    79.871496 
    6950   -114.38696   -117.52496    16.081981   -133.60694            0    3.1652141  0.010431649         4.01         4.01     1.890145 0.00068614091   -115016.64   -172523.78   -172677.31    151.16087 
    7000   -114.38696    -117.5255    16.082668   -133.60817            0    3.1657612  0.009046713         4.01         4.01     1.890145 0.0047046328   -115044.59   -172524.57    -172676.2    66.991767 
    7050   -114.38696    -117.5252    16.083402    -133.6086            0    3.1654664 0.0079793411         4.01         4.01     1.890145 0.00016519848    -114999.7   -172482.52   -172631.48    114.89091 
    7100   -114.38696   -117.52665     16.08242   -133.60907            0     3.166926  0.020041559         4.01         4.01     1.890145 0.0020392658    -115178.6   -172579.45   -172754.06   -202.29798 
    7150   -114.38696   -117.52645    16.082865   -133.60932            0    3.1667295  0.013782093         4.01         4.01     1.890145 0.0013596163   -115155.96   -172563.92   -172736.92   -167.04608 
    7200   -114.38697   -117.52587    16.083647   -133.60951            0    3.1661454   0.00468302         4.01         4.01     1.890145 3.4469354e-05    -115083.6   -172525.32   -172670.84   -54.639468 
    7250   -114.38697   -117.52608    16.083646   -133.60972            0     3.166361 0.0042732675         4.01         4.01     1.890145 0.00020561825   -115113.23   -172527.99   -172696.85   -114.84351 
    7300   -114.38697   -117.52608    16.083727   -133.60981            0     3.166371  0.003473326         4.01         4.01     1.890145 0.00013293471   -115118.56   -172533.21   -172696.83   -125.63785 
    7350   -114.38697   -117.52611     16.08384   -133.60995            0    3.1664009 0.0029259141         4.01         4.01     1.890145 4.5862868e-06   -115124.04   -172551.02   -172683.07   -138.03754 
    7400   -114.38697    -117.5262    16.083919   -133.61012            0     3.166489 0.0043427388         4.01         4.01     1.890145 9.857187e-07   -115135.27   -172578.51   -172663.52   -163.77534 
    7450   -114.38697   -117.52623    16.083913   -133.61014            0    3.1665204 0.0034520905         4.01         4.01     1.890145 4.7931264e-07   -115144.28   -172576.88   -172675.71   -180.23704 
    7500   -114.38697   -117.52626    16.083933   -133.61019            0    3.1665572 0.0027343734         4.01         4.01     1.890145 8.3868663e-05   -115150.78   -172574.84   -172684.89   -192.60807 
    7550   -114.38697    -117.5263    16.083964   -133.61026            0    3.1665927 0.0016444549         4.01         4.01     1.890145 5.2380222e-05   -115155.38   -172555.34   -172708.23   -202.56885 
    7600   -114.38697   -117.52634    16.084013   -133.61035            0    3.1666332 0.0014365919         4.01         4.01     1.890145 1.7733437e-05   -115159.07    -172564.8   -172701.16   -211.26358 
    7650   -114.38697   -117.52637    16.084049   -133.61042            0    3.1666674 0.0011811173         4.01         4.01     1.890145 2.5877238e-06   -115163.51   -172563.43    -172705.2   -221.90238 
    7700   -114.38697   -117.52639    16.084079   -133.61047            0    3.1666952 0.0011077378         4.01         4.01     1.890145 5.5240872e-06   -115167.26    -172569.1   -172702.41   -230.28489 
    7750   -114.38697   -117.52641    16.084093    -133.6105            0    3.1667115 0.0012596195         4.01         4.01     1.890145 6.8511572e-06   -115170.32    -172557.7   -172716.87   -236.37859 
    7800   -114.38697   -117.52642    16.084098   -133.61052            0    3.1667256 0.00091825195         4.01         4.01     1.890145 4.0176806e-06   -115173.02   -172562.94   -172714.53   -241.58209 
    7850   -114.38697   -117.52643    16.084108   -133.61054            0    3.1667362 0.00081636998         4.01         4.01     1.890145 2.9567084e-06   -115174.66   -172564.43   -172714.58   -244.97229 
    7900   -114.38697   -117.52645    16.084125   -133.61057            0    3.1667505 0.0005677169         4.01         4.01     1.890145 1.6347511e-08   -115176.08   -172567.47   -172712.03   -248.75516 
    7950   -114.38697   -117.52645    16.084132   -133.61059            0    3.1667583 0.00057901474         4.01         4.01     1.890145 2.1049589e-06   -115177.42   -172567.07   -172713.64   -251.56334 
    8000   -114.38697   -117.52646     16.08414    -133.6106            0    3.1667669 0.00080899876         4.01         4.01     1.890145 4.1742024e-07   -115178.67   -172564.88   -172716.99   -254.11878 
    8050   -114.38697   -117.52647    16.084153   -133.61063            0    3.1667774 0.00044120076         4.01         4.01     1.890145 1.2926854e-06   -115179.66    -172573.1   -172709.14   -256.72741 
    8100   -114.38697   -117.52648    16.084157   -133.61063            0    3.1667815 0.00037359687         4.01         4.01     1.890145 1.0452853e-06   -115180.38   -172569.73   -172713.21   -258.21076 
    8150   -114.38697   -117.52648    16.084165   -133.61065            0    3.1667889 0.00072371551         4.01         4.01     1.890145 4.8162715e-07   -115181.27   -172566.27   -172717.21   -260.33092 
    8200   -114.38697   -117.52649    16.084171   -133.61066            0    3.1667942 0.00026859031         4.01         4.01     1.890145 2.9767076e-07   -115181.78   -172573.18   -172710.61   -261.55184 
    8250   -114.38697   -117.52649    16.084177   -133.61067            0    3.1667989 0.00026580454         4.01         4.01     1.890145 5.1440413e-07   -115182.34   -172571.05   -172712.99   -262.98244 
    8300   -114.38697    -117.5265    16.084182   -133.61068            0    3.1668038 0.00021588616         4.01         4.01     1.890145 4.3116519e-07   -115182.89   -172571.89   -172712.47   -264.28999 
    8350   -114.38697    -117.5265    16.084185   -133.61069            0    3.1668065 0.00018429758         4.01         4.01     1.890145 1.5491849e-07   -115183.25   -172572.37   -172712.27   -265.12437 
    8400   -114.38697    -117.5265    16.084188   -133.61069            0    3.1668088 0.00015746925         4.01         4.01     1.890145 1.9731122e-07   -115183.47   -172574.06   -172710.64   -265.70694 
    8450   -114.38697   -117.52651    16.084193    -133.6107            0    3.1668124 0.00012468084         4.01         4.01     1.890145 9.4478741e-08   -115183.81   -172573.35   -172711.49   -266.59714 
    8500   -114.38697   -117.52651    16.084196    -133.6107            0    3.1668148 0.00010525768         4.01         4.01     1.890145 8.9012483e-08   -115184.03   -172573.95   -172710.94   -267.21208 
    8550   -114.38697   -117.52651      16.0842   -133.61071            0    3.1668178 9.4973946e-05         4.01         4.01     1.890145 1.1224467e-10   -115184.33   -172574.38   -172710.66   -267.96166 
    8600   -114.38697   -117.52651    16.084203   -133.61072            0      3.16682 8.7297007e-05         4.01         4.01     1.890145 3.7248119e-09   -115184.51   -172574.61    -172710.4   -268.52076 
    8650   -114.38697   -117.52651    16.084205   -133.61072            0    3.1668212 9.049163e-05         4.01         4.01     1.890145 5.6874411e-08   -115184.67   -172574.96   -172710.16   -268.88483 
    8700   -114.38697   -117.52652    16.084205   -133.61072            0    3.1668222 6.4074209e-05         4.01         4.01     1.890145 5.4593333e-08   -115184.82    -172574.3   -172710.94   -269.21648 
    8750   -114.38697   -117.52652    16.084206   -133.61072            0    3.1668233 6.3869798e-05         4.01         4.01     1.890145 9.9753242e-08   -115184.98   -172574.43    -172710.9   -269.59553 
    8800   -114.38697   -117.52652    16.084207   -133.61072            0    3.1668241 6.8880855e-05         4.01         4.01     1.890145 6.7942118e-08    -115185.1   -172574.48   -172710.95   -269.86622 
    8850   -114.38697   -117.52652    16.084208   -133.61073            0    3.1668248 6.3250177e-05         4.01         4.01     1.890145 3.1403615e-08   -115185.15   -172575.45   -172709.99   -270.00496 
    8900   -114.38697   -117.52652    16.084209   -133.61073            0    3.1668257 5.3542975e-05         4.01         4.01     1.890145 4.0853556e-08   -115185.22   -172575.52   -172709.95    -270.2028 
    8950   -114.38697   -117.52652     16.08421   -133.61073            0    3.1668261 3.2231905e-05         4.01         4.01     1.890145 2.993735e-08   -115185.29   -172575.38   -172710.14     -270.345 
    9000   -114.38697   -117.52652    16.084211   -133.61073            0    3.1668268 2.9811724e-05         4.01         4.01     1.890145 4.1250631e-11   -115185.35   -172575.26   -172710.26   -270.51642 
    9050   -114.38697   -117.52652    16.084211   -133.61073            0    3.1668272 3.8926747e-05         4.01         4.01     1.890145 1.981826e-08   -115185.39   -172575.21   -172710.34   -270.62375 
    9100   -114.38697   -117.52652    16.084212   -133.61073            0    3.1668276 4.2246907e-05         4.01         4.01     1.890145 2.2973892e-10   -115185.41   -172575.27   -172710.27   -270.70349 
    9150   -114.38697   -117.52652    16.084212   -133.61073            0     3.166828 1.6065615e-05         4.01         4.01     1.890145 1.3315673e-08   -115185.46   -172575.71   -172709.85   -270.80803 
    9200   -114.38697   -117.52652    16.084212   -133.61073            0    3.1668282 1.4655601e-05         4.01         4.01     1.890145 8.6317191e-10   -115185.49   -172575.74   -172709.85   -270.87936 
    9250   -114.38697   -117.52652    16.084213   -133.61073            0    3.1668286 1.2881582e-05         4.01         4.01     1.890145 1.4803219e-09   -115185.52   -172575.83   -172709.76   -270.96615 
    9300   -114.38697   -117.52652    16.084213   -133.61074            0    3.1668288 1.2129991e-05         4.01         4.01     1.890145 1.9201578e-09   -115185.55   -172575.92   -172709.68    -271.0416 
    9350   -114.38697   -117.52652    16.084213   -133.61074            0    3.1668289 1.0250125e-05         4.01         4.01     1.890145 1.8292233e-09   -115185.57   -172576.01   -172709.61   -271.08618 
    9400   -114.38697   -117.52652    16.084214   -133.61074            0    3.1668291 1.5455198e-05         4.01         4.01     1.890145 1.4475716e-09   -115185.58   -172576.25   -172709.38   -271.11812 
    9450   -114.38697   -117.52652    16.084214   -133.61074            0    3.1668293 1.4900038e-05         4.01         4.01     1.890145 1.2227611e-09   -115185.61   -172576.12   -172709.52   -271.19256 
    9500   -114.38697   -117.52652    16.084214   -133.61074            0    3.1668294 1.2221436e-05         4.01         4.01     1.890145 1.152906e-09   -115185.62    -172576.4   -172709.24   -271.20526 
    9550   -114.38697   -117.52652    16.084214   -133.61074            0    3.1668295 6.1362326e-06         4.01         4.01     1.890145 7.9725859e-10   -115185.62   -172576.39   -172709.25   -271.22737 
    9600   -114.38697   -117.52652    16.084214   -133.61074            0    3.1668296 4.8890747e-06         4.01         4.01     1.890145 1.5967728e-11   -115185.64   -172576.44   -172709.21   -271.25936 
    9650   -114.38697   -117.52652    16.084214   -133.61074            0    3.1668297 4.6916274e-06         4.01         4.01     1.890145 7.9562415e-11   -115185.64   -172576.55    -172709.1    -271.2811 
    9700   -114.38697   -117.52652    16.084215   -133.61074            0    3.1668298 4.8057573e-06         4.01         4.01     1.890145 9.5742743e-11   -115185.65   -172576.57   -172709.08   -271.30666 
    9750   -114.38697   -117.52652    16.084215   -133.61074            0    3.1668298 4.7438671e-06         4.01         4.01     1.890145 1.0347015e-10   -115185.66   -172576.69   -172708.96   -271.31252 
    9800   -114.38697   -117.52652    16.084215   -133.61074            0    3.1668299 3.9825496e-06         4.01         4.01     1.890145 1.0979993e-10   -115185.66   -172576.73   -172708.92    -271.3232 
    9850   -114.38697   -117.52652    16.084215   -133.61074            0    3.1668299 2.9942039e-06         4.01         4.01     1.890145 7.4821455e-11   -115185.67   -172576.79   -172708.87   -271.34016 
    9900   -114.38697   -117.52652    16.084215   -133.61074            0      3.16683 3.3410139e-06         4.01         4.01     1.890145 7.3033961e-13   -115185.67   -172576.87   -172708.78   -271.35059 
    9950   -114.38697   -117.52652    16.084215   -133.61074            0      3.16683 3.7971596e-06         4.01         4.01     1.890145 4.4619729e-11   -115185.67   -172576.95   -172708.71   -271.35786 
   10000   -114.38697   -117.52652    16.084215   -133.61074            0      3.16683 2.8329827e-06         4.01         4.01     1.890145 2.0294685e-10   -115185.68   -172576.96    -172708.7   -271.37241 
   10050   -114.38697   -117.52652    16.084215   -133.61074            0    3.1668301 2.2208617e-06         4.01         4.01     1.890145 5.2248698e-12   -115185.68   -172577.01   -172708.66   -271.37232 
   10100   -114.38697   -117.52652    16.084215   -133.61074            0    3.1668301 2.3202155e-06         4.01         4.01     1.890145 1.3078047e-11   -115185.68   -172577.07   -172708.59   -271.37464 
   10150   -114.38697   -117.52652    16.084215   -133.61074            0    3.1668301 2.0367905e-06         4.01         4.01     1.890145 6.2214602e-12   -115185.68    -172577.1   -172708.56   -271.37958 
   10200   -114.38697   -117.52652    16.084215   -133.61074            0    3.1668301 2.0339628e-06         4.01         4.01     1.890145 6.4406458e-12   -115185.68   -172577.16    -172708.5   -271.38225 
   10250   -114.38697   -117.52652    16.084215   -133.61074            0    3.1668301 2.3165924e-06         4.01         4.01     1.890145 1.6444782e-11   -115185.68   -172577.22   -172708.44   -271.38547 
   10300   -114.38697   -117.52652    16.084215   -133.61074            0    3.1668301 2.9205362e-06         4.01         4.01     1.890145 3.0967109e-11   -115185.68   -172577.27    -172708.4   -271.38654 
   10350   -114.38697   -117.52652    16.084215   -133.61074            0    3.1668301 1.8019001e-06         4.01         4.01     1.890145 1.4215686e-11   -115185.68   -172577.29   -172708.37   -271.38896 
   10400   -114.38697   -117.52652    16.084215   -133.61074            0    3.1668301 6.2736251e-06         4.01         4.01     1.890145 1.7023899e-10   -115185.68   -172577.37    -172708.3   -271.38689 
   10450   -114.38697   -117.52652    16.084215   -133.61074            0    3.1668301 3.1746265e-06         4.01         4.01     1.890145 1.9212534e-11   -115185.68   -172577.38   -172708.28   -271.39077 
   10500   -114.38697   -117.52652    16.084215   -133.61074            0    3.1668301 3.5697814e-06         4.01         4.01     1.890145 8.2126512e-11   -115185.69   -172577.43   -172708.24   -271.39218 
   10550   -114.38697   -117.52652    16.084215   -133.61074            0    3.1668301 1.4883531e-06         4.01         4.01     1.890145 2.4087857e-13   -115185.69   -172577.43   -172708.23   -271.39379 
   10600   -114.38697   -117.52652    16.084215   -133.61074            0    3.1668302 1.5940132e-06         4.01         4.01     1.890145 4.7600864e-11   -115185.69   -172577.47   -172708.19   -271.39375 
   10650   -114.38697   -117.52652    16.084215   -133.61074            0    3.1668302 3.2428926e-06         4.01         4.01     1.890145 5.1067555e-11   -115185.69   -172577.47   -172708.19    -271.3985 
   10700   -114.38697   -117.52652    16.084215   -133.61074            0    3.1668302 1.3885036e-06         4.01         4.01     1.890145 1.0987965e-11   -115185.69   -172577.53   -172708.14   -271.39515 
   10750   -114.38697   -117.52652    16.084215   -133.61074            0    3.1668302 1.7396235e-06         4.01         4.01     1.890145 1.072378e-11   -115185.69   -172577.56    -172708.1   -271.39514 
   10781   -114.38697   -117.52652    16.084215   -133.61074            0    3.1668302 9.8969526e-07         4.01         4.01     1.890145 2.7584514e-11   -115185.69   -172577.56    -172708.1   -271.39642 
Loop time of 12.5488 on 8 procs for 3956 steps with 10 atoms

26.4% CPU use with 8 MPI tasks x no OpenMP threads

Minimization stats:
  Stopping criterion = force tolerance
  Energy initial, next-to-last, final = 
        -114.386938384     -114.386969673     -114.386969673
  Force two-norm initial, final = 0.0453694 9.89695e-07
  Force max component initial, final = 0.0145553 3.70332e-07
  Final line search alpha, max atom move = 0 0
  Iterations, force evaluations = 3956 3956

MPI task timing breakdown:
Section |  min time  |  avg time  |  max time  |%varavg| %total
---------------------------------------------------------------
Pair    | 0.0097445  | 0.68556    | 3.5368     | 136.7 |  5.46
Bond    | 0.0029004  | 0.0041578  | 0.0064008  |   1.9 |  0.03
Neigh   | 0          | 0          | 0          |   0.0 |  0.00
Comm    | 5.8625     | 8.837      | 10.324     |  50.5 | 70.42
Output  | 0.055726   | 0.05925    | 0.069007   |   1.6 |  0.47
Modify  | 0.0040155  | 0.0066013  | 0.0092842  |   2.2 |  0.05
Other   |            | 2.956      |            |       | 23.56

Nlocal:    1.25 ave 4 max 0 min
Histogram: 4 0 0 0 0 3 0 0 0 1
Nghost:    808.75 ave 810 max 806 min
Histogram: 1 0 0 0 0 3 0 0 0 4
Neighs:    332.125 ave 1702 max 0 min
Histogram: 5 1 0 1 0 0 0 0 0 1

Total # of neighbors = 2657
Ave neighs/atom = 265.7
Ave special neighs/atom = 1
Neighbor list builds = 0
Dangerous builds = 0
min_style quickmin
minimize 0.0 1e-06 20000 100000
WARNING: Resetting reneighboring criteria during minimization (/tmp/dan/spack-stage/spack-stage-5I_aA6/lammps-feature-CORESHELL-pol/src/min.cpp:168)
Memory usage per processor = 9.02352 Mbytes
Step TotEng E_pair E_vdwl E_coul E_long E_bond Fnorm Lx Ly Lz Temp Press Pxx Pyy Pzz 
   10781   -114.38697   -117.52652    16.084215   -133.61074            0    3.1668302 9.8969519e-07         4.01         4.01     1.890801            0   -115145.72   -172517.69   -172648.18   -271.30227 
   10782   -114.38697   -117.52652    16.084215   -133.61074            0    3.1668302 9.8969518e-07         4.01         4.01     1.890801 4.9049322e-13   -115145.72   -172517.69   -172648.18   -271.30227 
Loop time of 0.00774294 on 8 procs for 1 steps with 10 atoms

32.3% CPU use with 8 MPI tasks x no OpenMP threads

Minimization stats:
  Stopping criterion = force tolerance
  Energy initial, next-to-last, final = 
        -114.386969673     -114.386969673     -114.386969673
  Force two-norm initial, final = 9.89695e-07 9.89695e-07
  Force max component initial, final = 3.70331e-07 3.70331e-07
  Final line search alpha, max atom move = 0 0
  Iterations, force evaluations = 1 1

MPI task timing breakdown:
Section |  min time  |  avg time  |  max time  |%varavg| %total
---------------------------------------------------------------
Pair    | 1.4653e-05 | 0.00033951 | 0.0015996  |   2.7 |  4.38
Bond    | 3.078e-06  | 5.3586e-06 | 9.276e-06  |   0.1 |  0.07
Neigh   | 0          | 0          | 0          |   0.0 |  0.00
Comm    | 0.0041614  | 0.0058814  | 0.006458   |   1.1 | 75.96
Output  | 0          | 0          | 0          |   0.0 |  0.00
Modify  | 3.515e-06  | 5.9464e-06 | 8.148e-06  |   0.1 |  0.08
Other   |            | 0.001511   |            |       | 19.51

Nlocal:    1.25 ave 4 max 0 min
Histogram: 4 0 0 0 0 3 0 0 0 1
Nghost:    808.75 ave 810 max 806 min
Histogram: 1 0 0 0 0 3 0 0 0 4
Neighs:    332 ave 1701 max 0 min
Histogram: 5 1 0 1 0 0 0 0 0 1

Total # of neighbors = 2656
Ave neighs/atom = 265.6
Ave special neighs/atom = 1
Neighbor list builds = 0
Dangerous builds = 0
unfix ef
fix ef all efield -0.00866025403784 -0.00866025403784 -0.00866025403784
fix_modify ef energy yes
min_style fire
minimize 0.0 1e-06 20000 100000
WARNING: Resetting reneighboring criteria during minimization (/tmp/dan/spack-stage/spack-stage-5I_aA6/lammps-feature-CORESHELL-pol/src/min.cpp:168)
Memory usage per processor = 9.02352 Mbytes
Step TotEng E_pair E_vdwl E_coul E_long E_bond Fnorm Lx Ly Lz Temp Press Pxx Pyy Pzz 
   10782   -114.40061   -117.52652    16.084215   -133.61074            0    3.1668302  0.045369422         4.01         4.01     1.890801            0   -115145.72   -172517.69   -172648.18   -271.30227 
   10800    -114.4006   -117.52933    16.089554   -133.61889            0    3.1696628  0.018816052         4.01         4.01     1.890801 0.0088033441   -114894.66   -172280.77   -172412.51    9.2860773 
   10850   -114.40062   -117.53186    16.097112   -133.62897            0    3.1722224  0.013304324         4.01         4.01     1.890801 0.0002904622   -114497.25   -171770.56   -171901.32    180.13942 
   10900   -114.40063   -117.53279    16.097959   -133.63075            0    3.1731614  0.009615541         4.01         4.01     1.890801 0.00011547634   -114519.88    -171754.8   -171885.25    80.414031 
   10950   -114.40063    -117.5329    16.098618   -133.63151            0    3.1732801 0.0097927172         4.01         4.01     1.890801 0.0017401478   -114512.13    -171731.1   -171859.65     54.36205 
   11000   -114.40063   -117.53295    16.099572   -133.63252            0    3.1733452  0.013321713         4.01         4.01     1.890801 0.0012574165   -114487.83   -171689.67   -171806.07    32.254907 
   11050   -114.40063    -117.5342    16.098831   -133.63303            0    3.1746095 0.0094639781         4.01         4.01     1.890801 0.00065069625   -114640.04   -171796.34   -171943.82   -179.96447 
   11100   -114.40064   -117.53402    16.099201   -133.63322            0    3.1744291 0.0056013652         4.01         4.01     1.890801 0.00056246017   -114620.21    -171777.9   -171910.24   -172.48225 
   11150   -114.40064   -117.53432    16.099152   -133.63347            0    3.1747387 0.0081936846         4.01         4.01     1.890801 0.00091893492   -114662.29   -171786.75   -171981.57   -218.54936 
   11200   -114.40064   -117.53419    16.099358   -133.63355            0    3.1746142 0.0047718108         4.01         4.01     1.890801 0.00048249566   -114652.38   -171784.03   -171944.11    -228.9974 
   11250   -114.40064   -117.53419    16.099444   -133.63364            0    3.1746216 0.0034706314         4.01         4.01     1.890801 1.9288652e-05   -114658.07   -171795.94   -171924.82   -253.44519 
   11300   -114.40064   -117.53428    16.099565   -133.63385            0    3.1747197  0.003049918         4.01         4.01     1.890801 1.8972789e-05   -114667.73   -171794.91   -171931.61   -276.65796 
   11350   -114.40064   -117.53432    16.099591   -133.63392            0    3.1747628 0.0029896252         4.01         4.01     1.890801 4.2669057e-05   -114678.12   -171819.64   -171913.53   -301.17895 
   11400   -114.40064   -117.53436    16.099599   -133.63396            0    3.1747996 0.0022468956         4.01         4.01     1.890801 1.1104636e-05   -114685.68   -171811.23   -171933.83   -311.98949 
   11450   -114.40064   -117.53439    16.099632   -133.63402            0    3.1748327 0.0047941765         4.01         4.01     1.890801 1.7453771e-05   -114691.91   -171850.83   -171897.37   -327.54319 
   11500   -114.40064   -117.53442    16.099655   -133.63408            0    3.1748661 0.0028328822         4.01         4.01     1.890801 4.6586677e-06    -114696.7   -171836.23   -171918.94   -334.93287 
   11550   -114.40064   -117.53446    16.099696   -133.63416            0    3.1749084 0.0015179106         4.01         4.01     1.890801 4.2264177e-06    -114701.3   -171820.57   -171938.51   -344.82997 
   11600   -114.40064   -117.53448     16.09972    -133.6342            0    3.1749336 0.0015458347         4.01         4.01     1.890801 1.1012516e-05   -114705.23   -171829.49   -171933.53   -352.67971 
   11650   -114.40064    -117.5345    16.099733   -133.63423            0    3.1749528 0.0012311148         4.01         4.01     1.890801 8.1023098e-06   -114708.79   -171828.54   -171938.01   -359.82882 
   11700   -114.40064   -117.53453    16.099756   -133.63428            0    3.1749786 0.00097085313         4.01         4.01     1.890801 4.9366533e-09    -114712.3   -171823.43   -171945.84   -367.63678 
   11750   -114.40064   -117.53455    16.099781   -133.63433            0    3.1749991 0.00089643075         4.01         4.01     1.890801  1.96683e-06   -114714.43   -171829.71   -171940.65   -372.91459 
   11800   -114.40064   -117.53455    16.099793   -133.63435            0    3.1750097 0.00090700949         4.01         4.01     1.890801 7.261639e-06   -114716.27   -171832.23   -171939.67   -376.90781 
   11850   -114.40064   -117.53457     16.09981   -133.63438            0    3.1750271 0.00082748897         4.01         4.01     1.890801 3.3620518e-06   -114718.16   -171823.28   -171950.18   -381.02411 
   11900   -114.40064   -117.53458    16.099826   -133.63441            0    3.1750409 0.00064218078         4.01         4.01     1.890801 3.7596842e-06   -114719.84   -171832.28   -171942.07   -385.17769 
   11950   -114.40064    -117.5346    16.099839   -133.63444            0    3.1750562 0.0011422437         4.01         4.01     1.890801 2.9378118e-06   -114721.48    -171820.9   -171954.65   -388.89165 
   12000   -114.40064    -117.5346    16.099846   -133.63445            0    3.1750615 0.00044405887         4.01         4.01     1.890801 2.9158326e-08   -114722.42   -171831.81   -171944.43   -391.01596 
   12050   -114.40064   -117.53461    16.099855   -133.63447            0     3.175069 0.00039504797         4.01         4.01     1.890801 2.0482588e-06   -114723.24   -171832.02    -171944.6   -393.11142 
   12100   -114.40064   -117.53462    16.099865   -133.63448            0    3.1750787 0.00036170288         4.01         4.01     1.890801 1.6237951e-08   -114724.37   -171829.37   -171948.19   -395.55208 
   12150   -114.40064   -117.53462     16.09987   -133.63449            0    3.1750828 0.00028373929         4.01         4.01     1.890801 8.9867873e-08   -114724.91   -171830.41    -171947.4   -396.92521 
   12200   -114.40064   -117.53463    16.099873    -133.6345            0    3.1750858 0.0002537702         4.01         4.01     1.890801 2.822113e-08   -114725.36   -171830.67   -171947.43   -397.98285 
   12250   -114.40064   -117.53463    16.099881   -133.63451            0    3.1750915 0.00023430244         4.01         4.01     1.890801 2.0199975e-07    -114725.9   -171833.18   -171945.19   -399.32094 
   12300   -114.40064   -117.53463    16.099883   -133.63452            0     3.175094 0.00017528559         4.01         4.01     1.890801 5.4346647e-07   -114726.28   -171832.11   -171946.48   -400.26251 
   12350   -114.40064   -117.53464    16.099887   -133.63452            0    3.1750974 0.00016406281         4.01         4.01     1.890801 1.4352539e-07   -114726.59   -171832.22   -171946.56   -400.97878 
   12400   -114.40064   -117.53464    16.099894   -133.63454            0    3.1751022 0.00014029779         4.01         4.01     1.890801 1.684036e-07   -114726.85   -171832.79    -171945.8   -401.95581 
   12450   -114.40064   -117.53464    16.099896   -133.63454            0    3.1751044  0.000131903         4.01         4.01     1.890801 1.7904052e-08   -114727.24   -171833.33   -171945.57    -402.8087 
   12500   -114.40064   -117.53465    16.099899   -133.63455            0    3.1751071 0.00010547777         4.01         4.01     1.890801 1.6528663e-09   -114727.49   -171832.81   -171946.22   -403.44627 
   12550   -114.40064   -117.53465    16.099902   -133.63455            0    3.1751094 0.00016624605         4.01         4.01     1.890801 1.7733839e-09   -114727.71      -171832    -171947.1   -404.03852 
   12600   -114.40064   -117.53465    16.099904   -133.63455            0    3.1751108 8.7641448e-05         4.01         4.01     1.890801 1.7571844e-07   -114727.92   -171833.67   -171945.55   -404.53064 
   12650   -114.40064   -117.53465    16.099905   -133.63456            0    3.1751118 0.00010869266         4.01         4.01     1.890801 8.6736465e-10   -114728.07   -171834.29   -171945.09   -404.83658 
   12700   -114.40064   -117.53465    16.099907   -133.63456            0    3.1751128 0.0001239708         4.01         4.01     1.890801 1.3168449e-07   -114728.18   -171834.63   -171944.81     -405.091 
   12750   -114.40064   -117.53465    16.099908   -133.63456            0    3.1751145 5.3387549e-05         4.01         4.01     1.890801 3.2557008e-09   -114728.32   -171833.83   -171945.67   -405.47737 
   12800   -114.40064   -117.53465    16.099909   -133.63456            0    3.1751152 5.3030192e-05         4.01         4.01     1.890801 2.0699569e-08   -114728.41    -171833.7   -171945.81   -405.73469 
   12850   -114.40064   -117.53465     16.09991   -133.63456            0    3.1751161 4.1621078e-05         4.01         4.01     1.890801 5.3226303e-09    -114728.5   -171834.23   -171945.35     -405.921 
   12900   -114.40064   -117.53466    16.099912   -133.63457            0    3.1751171 6.366157e-05         4.01         4.01     1.890801 7.6272958e-10   -114728.59   -171833.79   -171945.81   -406.18931 
   12950   -114.40064   -117.53466    16.099912   -133.63457            0    3.1751178 4.0102831e-05         4.01         4.01     1.890801 2.0994379e-10   -114728.67   -171834.12   -171945.51   -406.38089 
   13000   -114.40064   -117.53466    16.099913   -133.63457            0    3.1751181 3.4258966e-05         4.01         4.01     1.890801 4.0756112e-09   -114728.74   -171834.26   -171945.44   -406.50769 
   13050   -114.40064   -117.53466    16.099913   -133.63457            0    3.1751185 2.2904447e-05         4.01         4.01     1.890801 1.3720073e-11   -114728.77   -171834.63   -171945.09   -406.60188 
   13100   -114.40064   -117.53466    16.099914   -133.63457            0     3.175119 3.477697e-05         4.01         4.01     1.890801 5.4271714e-11   -114728.81   -171834.93   -171944.78   -406.71652 
   13150   -114.40064   -117.53466    16.099914   -133.63457            0    3.1751193 2.4323592e-05         4.01         4.01     1.890801 4.4804348e-09   -114728.85   -171834.93   -171944.81   -406.81858 
   13200   -114.40064   -117.53466    16.099915   -133.63457            0    3.1751196 1.4018489e-05         4.01         4.01     1.890801 6.6570655e-10   -114728.88   -171834.87   -171944.88   -406.89346 
   13250   -114.40064   -117.53466    16.099915   -133.63457            0      3.17512 2.1145853e-05         4.01         4.01     1.890801 2.3427573e-09   -114728.92   -171835.11   -171944.67   -406.97905 
   13300   -114.40064   -117.53466    16.099915   -133.63457            0    3.1751202 1.0983759e-05         4.01         4.01     1.890801 2.8529743e-09   -114728.94   -171835.03   -171944.76   -407.04271 
   13350   -114.40064   -117.53466    16.099916   -133.63457            0    3.1751204 1.3562205e-05         4.01         4.01     1.890801 1.1387922e-10   -114728.97   -171835.06   -171944.73   -407.11712 
   13400   -114.40064   -117.53466    16.099916   -133.63457            0    3.1751206 7.876319e-06         4.01         4.01     1.890801 3.1181128e-10   -114728.98   -171835.21   -171944.59   -407.15428 
   13450   -114.40064   -117.53466    16.099916   -133.63457            0    3.1751207 1.0352575e-05         4.01         4.01     1.890801 4.0624441e-10      -114729   -171835.35   -171944.46   -407.17608 
   13500   -114.40064   -117.53466    16.099916   -133.63457            0    3.1751208 7.7971278e-06         4.01         4.01     1.890801 2.7714491e-10   -114729.01   -171835.31   -171944.51   -407.22031 
   13550   -114.40064   -117.53466    16.099916   -133.63458            0    3.1751209 5.8140229e-06         4.01         4.01     1.890801 2.7065247e-10   -114729.02   -171835.39   -171944.43   -407.24275 
   13600   -114.40064   -117.53466    16.099916   -133.63458            0    3.1751211 4.8073201e-06         4.01         4.01     1.890801 3.2829519e-10   -114729.03    -171835.5   -171944.33   -407.27382 
   13650   -114.40064   -117.53466    16.099917   -133.63458            0    3.1751211 4.0840282e-06         4.01         4.01     1.890801 4.8038169e-11   -114729.04   -171835.56   -171944.26   -407.29372 
   13700   -114.40064   -117.53466    16.099917   -133.63458            0    3.1751212 4.8223726e-06         4.01         4.01     1.890801 1.454431e-10   -114729.05   -171835.66   -171944.17   -407.31231 
   13750   -114.40064   -117.53466    16.099917   -133.63458            0    3.1751213 4.6508303e-06         4.01         4.01     1.890801 4.3202395e-11   -114729.05   -171835.72   -171944.11   -407.32871 
   13800   -114.40064   -117.53466    16.099917   -133.63458            0    3.1751213 5.0401607e-06         4.01         4.01     1.890801 2.3854121e-10   -114729.06   -171835.78   -171944.06   -407.34017 
   13850   -114.40064   -117.53466    16.099917   -133.63458            0    3.1751213 2.9506042e-06         4.01         4.01     1.890801 1.2273686e-10   -114729.06   -171835.79   -171944.05   -407.35091 
   13900   -114.40064   -117.53466    16.099917   -133.63458            0    3.1751214 3.0484082e-06         4.01         4.01     1.890801 1.3093833e-10   -114729.07   -171835.83   -171944.01   -407.36467 
   13950   -114.40064   -117.53466    16.099917   -133.63458            0    3.1751214 2.5541333e-06         4.01         4.01     1.890801 1.1205405e-10   -114729.07   -171835.87   -171943.96   -407.37045 
   14000   -114.40064   -117.53466    16.099917   -133.63458            0    3.1751214 2.8165545e-06         4.01         4.01     1.890801 9.2529883e-12   -114729.07   -171835.95   -171943.89   -407.37451 
   14050   -114.40064   -117.53466    16.099917   -133.63458            0    3.1751215 3.8741048e-06         4.01         4.01     1.890801 1.136028e-10   -114729.07      -171836   -171943.84   -407.37822 
   14100   -114.40064   -117.53466    16.099917   -133.63458            0    3.1751215 1.9973173e-06         4.01         4.01     1.890801 8.5568547e-11   -114729.08   -171836.04    -171943.8    -407.3898 
   14150   -114.40064   -117.53466    16.099917   -133.63458            0    3.1751215 1.9891225e-06         4.01         4.01     1.890801 1.006144e-11   -114729.08   -171836.08   -171943.76   -407.39316 
   14200   -114.40064   -117.53466    16.099917   -133.63458            0    3.1751215 3.0823469e-06         4.01         4.01     1.890801 6.4338619e-11   -114729.08    -171836.1   -171943.74   -407.40032 
   14250   -114.40064   -117.53466    16.099917   -133.63458            0    3.1751215 1.8034406e-06         4.01         4.01     1.890801 4.6261117e-11   -114729.08   -171836.15   -171943.69   -407.40057 
   14300   -114.40064   -117.53466    16.099917   -133.63458            0    3.1751216 4.8924412e-06         4.01         4.01     1.890801 1.2113643e-10   -114729.08   -171836.25   -171943.59   -407.39999 
   14350   -114.40064   -117.53466    16.099917   -133.63458            0    3.1751216 1.7705296e-06         4.01         4.01     1.890801 1.2909753e-11   -114729.08   -171836.25   -171943.59   -407.40416 
   14400   -114.40064   -117.53466    16.099917   -133.63458            0    3.1751216 1.6748684e-06         4.01         4.01     1.890801 5.5069946e-12   -114729.08   -171836.29   -171943.55   -407.40665 
   14450   -114.40064   -117.53466    16.099917   -133.63458            0    3.1751216 2.0324798e-06         4.01         4.01     1.890801 6.3280102e-13   -114729.08   -171836.34    -171943.5   -407.40948 
   14500   -114.40064   -117.53466    16.099917   -133.63458            0    3.1751216 1.4301506e-06         4.01         4.01     1.890801 1.5966736e-11   -114729.08   -171836.35    -171943.5   -407.40898 
   14550   -114.40064   -117.53466    16.099917   -133.63458            0    3.1751216 2.5507204e-06         4.01         4.01     1.890801 1.9682152e-11   -114729.08    -171836.4   -171943.44   -407.41075 
   14600   -114.40064   -117.53466    16.099917   -133.63458            0    3.1751216 1.5445024e-06         4.01         4.01     1.890801 8.6231796e-12   -114729.08   -171836.42   -171943.43   -407.41124 
   14650   -114.40064   -117.53466    16.099917   -133.63458            0    3.1751216 1.2136843e-06         4.01         4.01     1.890801 1.9398267e-11   -114729.08   -171836.44    -171943.4   -407.41195 
   14700   -114.40064   -117.53466    16.099917   -133.63458            0    3.1751216 1.1452224e-06         4.01         4.01     1.890801 2.5854721e-11   -114729.08   -171836.46   -171943.38    -407.4126 
   14750   -114.40064   -117.53466    16.099917   -133.63458            0    3.1751216 1.0909306e-06         4.01         4.01     1.890801 5.0014211e-12   -114729.08   -171836.49   -171943.36   -407.41293 
   14787   -114.40064   -117.53466    16.099917   -133.63458            0    3.1751216 9.8531503e-07         4.01         4.01     1.890801 1.7987353e-11   -114729.09   -171836.51   -171943.33    -407.4136 
Loop time of 14.0826 on 8 procs for 4005 steps with 10 atoms

24.4% CPU use with 8 MPI tasks x no OpenMP threads

Minimization stats:
  Stopping criterion = force tolerance
  Energy initial, next-to-last, final = 
         -114.40060785     -114.400638956     -114.400638956
  Force two-norm initial, final = 0.0453694 9.85315e-07
  Force max component initial, final = 0.0145554 3.72032e-07
  Final line search alpha, max atom move = 0 0
  Iterations, force evaluations = 4005 4005

MPI task timing breakdown:
Section |  min time  |  avg time  |  max time  |%varavg| %total
---------------------------------------------------------------
Pair    | 0.011489   | 0.74082    | 3.7271     | 138.7 |  5.26
Bond    | 0.003187   | 0.004965   | 0.010376   |   3.1 |  0.04
Neigh   | 0          | 0          | 0          |   0.0 |  0.00
Comm    | 5.6733     | 9.8915     | 11.559     |  62.9 | 70.24
Output  | 0.068007   | 0.07236    | 0.076919   |   1.3 |  0.51
Modify  | 0.0038904  | 0.006166   | 0.010602   |   2.8 |  0.04
Other   |            | 3.367      |            |       | 23.91

Nlocal:    1.25 ave 4 max 0 min
Histogram: 4 0 0 0 0 3 0 0 0 1
Nghost:    808.75 ave 810 max 806 min
Histogram: 1 0 0 0 0 3 0 0 0 4
Neighs:    332 ave 1701 max 0 min
Histogram: 5 1 0 1 0 0 0 0 0 1

Total # of neighbors = 2656
Ave neighs/atom = 265.6
Ave special neighs/atom = 1
Neighbor list builds = 0
Dangerous builds = 0
min_style quickmin
minimize 0.0 1e-06 20000 100000
WARNING: Resetting reneighboring criteria during minimization (/tmp/dan/spack-stage/spack-stage-5I_aA6/lammps-feature-CORESHELL-pol/src/min.cpp:168)
Memory usage per processor = 9.02352 Mbytes
Step TotEng E_pair E_vdwl E_coul E_long E_bond Fnorm Lx Ly Lz Temp Press Pxx Pyy Pzz 
   14787   -114.40064   -117.53466    16.099917   -133.63458            0    3.1751216 9.8531509e-07         4.01         4.01     1.891453            0   -114689.53   -171777.28   -171884.05   -407.27315 
   14788   -114.40064   -117.53466    16.099917   -133.63458            0    3.1751216 9.853151e-07         4.01         4.01     1.891453 6.8935678e-13   -114689.53   -171777.28   -171884.05   -407.27315 
Loop time of 0.0845891 on 8 procs for 1 steps with 10 atoms

16.0% CPU use with 8 MPI tasks x no OpenMP threads

Minimization stats:
  Stopping criterion = force tolerance
  Energy initial, next-to-last, final = 
        -114.400638956     -114.400638956     -114.400638956
  Force two-norm initial, final = 9.85315e-07 9.85315e-07
  Force max component initial, final = 3.72031e-07 3.72031e-07
  Final line search alpha, max atom move = 0 0
  Iterations, force evaluations = 1 1

MPI task timing breakdown:
Section |  min time  |  avg time  |  max time  |%varavg| %total
---------------------------------------------------------------
Pair    | 8.865e-06  | 0.00033203 | 0.0016045  |   2.8 |  0.39
Bond    | 1.256e-06  | 2.0005e-06 | 2.583e-06  |   0.0 |  0.00
Neigh   | 0          | 0          | 0          |   0.0 |  0.00
Comm    | 0.0021284  | 0.0037475  | 0.0045103  |   1.3 |  4.43
Output  | 0          | 0          | 0          |   0.0 |  0.00
Modify  | 1.704e-06  | 2.7459e-06 | 4.086e-06  |   0.1 |  0.00
Other   |            | 0.0805     |            |       | 95.17

Nlocal:    1.25 ave 4 max 0 min
Histogram: 4 0 0 0 0 3 0 0 0 1
Nghost:    808.75 ave 810 max 806 min
Histogram: 1 0 0 0 0 3 0 0 0 4
Neighs:    331.625 ave 1698 max 0 min
Histogram: 5 1 0 1 0 0 0 0 0 1

Total # of neighbors = 2653
Ave neighs/atom = 265.3
Ave special neighs/atom = 1
Neighbor list builds = 0
Dangerous builds = 0
unfix ef
fix ef all efield -0.0115470053838 -0.0115470053838 -0.0115470053838
fix_modify ef energy yes
min_style fire
minimize 0.0 1e-06 20000 100000
WARNING: Resetting reneighboring criteria during minimization (/tmp/dan/spack-stage/spack-stage-5I_aA6/lammps-feature-CORESHELL-pol/src/min.cpp:168)
Memory usage per processor = 9.02352 Mbytes
Step TotEng E_pair E_vdwl E_coul E_long E_bond Fnorm Lx Ly Lz Temp Press Pxx Pyy Pzz 
   14788   -114.41434   -117.53466    16.099917   -133.63458            0    3.1751216  0.045369422         4.01         4.01     1.891453            0   -114689.53   -171777.28   -171884.05   -407.27315 
   14800   -114.41434   -117.53861    16.105371   -133.64398            0    3.1791142  0.023076583         4.01         4.01     1.891453 0.0013512143   -114482.26   -171495.06   -171603.67   -348.06045 
   14850   -114.41435   -117.54036     16.11239   -133.65275            0     3.180899   0.01098314         4.01         4.01     1.891453 0.0014593276   -114093.94   -171068.18   -171175.57   -38.078979 
   14900   -114.41436   -117.54076    16.113757   -133.65452            0    3.1813169  0.010100463         4.01         4.01     1.891453 2.4176892e-06    -114049.2   -171005.07   -171111.36   -31.164584 
   14950   -114.41436    -117.5416    16.113746   -133.65535            0    3.1821714 0.0099445634         4.01         4.01     1.891453 0.00071188636   -114127.68   -171048.94    -171157.1   -177.01144 
   15000   -114.41436   -117.54211     16.11436   -133.65647            0    3.1827019   0.00997264         4.01         4.01     1.891453  0.000488795   -114153.54   -171052.84   -171167.01   -240.78202 
   15050   -114.41437   -117.54171    16.114979   -133.65669            0    3.1823093 0.0069841144         4.01         4.01     1.891453 0.00019626643   -114114.66    -171004.5   -171096.18   -243.30786 
   15100   -114.41437   -117.54192    16.114976    -133.6569            0    3.1825347 0.0055303665         4.01         4.01     1.891453 0.00019048937   -114145.21   -171025.85   -171120.14   -289.63219 
   15150   -114.41437   -117.54217    16.114938   -133.65711            0     3.182796 0.0047249352         4.01         4.01     1.891453 7.6813903e-07   -114182.94   -171050.48   -171166.22   -332.12374 
   15200   -114.41437   -117.54234    16.115041   -133.65738            0    3.1829726 0.0059240728         4.01         4.01     1.891453 1.491083e-06   -114204.24    -171048.5   -171208.92   -355.31783 
   15250   -114.41437   -117.54235     16.11508   -133.65743            0    3.1829921 0.0052504033         4.01         4.01     1.891453 0.00020449496    -114214.7   -171048.74   -171210.86     -384.493 
   15300   -114.41437   -117.54239    16.115211    -133.6576            0    3.1830282 0.0027857825         4.01         4.01     1.891453 0.00011823856   -114218.28   -171068.76   -171165.05   -421.01748 
[...]
   50200   -114.52641   -117.60606    16.239625   -133.84568            0     3.250593 3.973205e-06         4.01         4.01    1.8965452 5.6238768e-11   -110776.07   -165390.55   -165295.36   -1642.2944 
   50250   -114.52641   -117.60606    16.239625   -133.84568            0     3.250593 4.7092971e-06         4.01         4.01    1.8965452  3.21964e-12   -110776.07   -165390.63   -165295.28   -1642.3074 
   50300   -114.52641   -117.60606    16.239625   -133.84568            0    3.2505931 2.7412558e-06         4.01         4.01    1.8965452 2.2094984e-10   -110776.07   -165390.64   -165295.26   -1642.3155 
   50350   -114.52641   -117.60606    16.239625   -133.84568            0    3.2505931 2.6210964e-06         4.01         4.01    1.8965452 1.181609e-10   -110776.08   -165390.69   -165295.22    -1642.321 
   50400   -114.52641   -117.60606    16.239625   -133.84568            0    3.2505931 2.1326258e-06         4.01         4.01    1.8965452 9.6452297e-11   -110776.08   -165390.76   -165295.15   -1642.3265 
   50450   -114.52641   -117.60606    16.239625   -133.84568            0    3.2505931 2.1457111e-06         4.01         4.01    1.8965452 9.6397453e-12   -110776.08   -165390.82   -165295.09   -1642.3305 
   50500   -114.52641   -117.60606    16.239625   -133.84568            0    3.2505931 2.1787574e-06         4.01         4.01    1.8965452 8.0695097e-12   -110776.08   -165390.87   -165295.04   -1642.3334 
   50550   -114.52641   -117.60606    16.239625   -133.84568            0    3.2505932 1.9391732e-06         4.01         4.01    1.8965452 5.8017491e-12   -110776.08   -165390.93   -165294.98   -1642.3373 
   50600   -114.52641   -117.60606    16.239625   -133.84568            0    3.2505932 1.7335075e-06         4.01         4.01    1.8965452 3.9664901e-11   -110776.08   -165390.96   -165294.95   -1642.3388 
   50650   -114.52641   -117.60606    16.239625   -133.84568            0    3.2505932 2.4298856e-06         4.01         4.01    1.8965452 1.9792409e-13   -110776.08   -165391.01    -165294.9     -1642.34 
   50700   -114.52641   -117.60606    16.239625   -133.84568            0    3.2505932 2.0644681e-06         4.01         4.01    1.8965452 9.2356558e-12   -110776.08   -165391.03   -165294.88   -1642.3423 
   50750   -114.52641   -117.60606    16.239625   -133.84568            0    3.2505932 1.4766664e-06         4.01         4.01    1.8965452 6.4390002e-13   -110776.09   -165391.08   -165294.84   -1642.3434 
   50800   -114.52641   -117.60606    16.239625   -133.84568            0    3.2505932 2.6054769e-06         4.01         4.01    1.8965452 6.3834874e-11   -110776.09   -165391.14   -165294.77   -1642.3447 
   50850   -114.52641   -117.60606    16.239625   -133.84568            0    3.2505932 1.4856333e-06         4.01         4.01    1.8965452 6.6568214e-13   -110776.09   -165391.15   -165294.76   -1642.3454 
   50900   -114.52641   -117.60606    16.239625   -133.84568            0    3.2505932 1.2849325e-06         4.01         4.01    1.8965452 1.0277116e-11   -110776.09   -165391.18   -165294.73   -1642.3462 
   50950   -114.52641   -117.60606    16.239625   -133.84568            0    3.2505932 1.4593986e-06         4.01         4.01    1.8965452 8.9096591e-12   -110776.09   -165391.23   -165294.69   -1642.3468 
   51000   -114.52641   -117.60606    16.239625   -133.84568            0    3.2505932 1.242202e-06         4.01         4.01    1.8965452 6.3252565e-12   -110776.09   -165391.24   -165294.67   -1642.3471 
   51050   -114.52641   -117.60606    16.239625   -133.84568            0    3.2505932 1.5248767e-06         4.01         4.01    1.8965452 3.6016391e-11   -110776.09   -165391.28   -165294.64   -1642.3476 
   51100   -114.52641   -117.60606    16.239625   -133.84568            0    3.2505932 1.8544862e-06         4.01         4.01    1.8965452 5.0502516e-11   -110776.09   -165391.31   -165294.61   -1642.3478 
   51117   -114.52641   -117.60606    16.239625   -133.84568            0    3.2505932 9.9981124e-07         4.01         4.01    1.8965452 9.4566522e-12   -110776.09    -165391.3   -165294.61   -1642.3479 
Loop time of 9.43853 on 8 procs for 4058 steps with 10 atoms

30.0% CPU use with 8 MPI tasks x no OpenMP threads

Minimization stats:
  Stopping criterion = force tolerance
  Energy initial, next-to-last, final = 
        -114.526383425     -114.526413205     -114.526413205
  Force two-norm initial, final = 0.0453694 9.99811e-07
  Force max component initial, final = 0.0145554 3.92407e-07
  Final line search alpha, max atom move = 0 0
  Iterations, force evaluations = 4058 4058

MPI task timing breakdown:
Section |  min time  |  avg time  |  max time  |%varavg| %total
---------------------------------------------------------------
Pair    | 0.0069504  | 0.65524    | 3.2852     | 129.9 |  6.94
Bond    | 0.0021654  | 0.0031448  | 0.0045775  |   1.5 |  0.03
Neigh   | 0          | 0          | 0          |   0.0 |  0.00
Comm    | 4.2614     | 7.397      | 8.6141     |  57.4 | 78.37
Output  | 0.03354    | 0.035174   | 0.041307   |   1.3 |  0.37
Modify  | 0.0025954  | 0.0040142  | 0.0054146  |   1.8 |  0.04
Other   |            | 1.344      |            |       | 14.24

Nlocal:    1.25 ave 4 max 0 min
Histogram: 4 0 0 0 0 3 0 0 0 1
Nghost:    808.75 ave 810 max 806 min
Histogram: 1 0 0 0 0 3 0 0 0 4
Neighs:    331.375 ave 1696 max 0 min
Histogram: 5 1 0 1 0 0 0 0 0 1

Total # of neighbors = 2651
Ave neighs/atom = 265.1
Ave special neighs/atom = 1
Neighbor list builds = 0
Dangerous builds = 0
min_style quickmin
minimize 0.0 1e-06 20000 100000
WARNING: Resetting reneighboring criteria during minimization (/tmp/dan/spack-stage/spack-stage-5I_aA6/lammps-feature-CORESHELL-pol/src/min.cpp:168)
Memory usage per processor = 9.02352 Mbytes
Step TotEng E_pair E_vdwl E_coul E_long E_bond Fnorm Lx Ly Lz Temp Press Pxx Pyy Pzz 
   51117   -114.52641   -117.60606    16.239625   -133.84568            0    3.2505932 9.998113e-07         4.01         4.01    1.8971696            0   -110739.63   -165336.87   -165240.21   -1641.8074 
   51118   -114.52641   -117.60606    16.239625   -133.84568            0    3.2505932 9.9981129e-07         4.01         4.01    1.8971696 4.0615598e-13   -110739.63   -165336.87   -165240.21   -1641.8074 
Loop time of 0.00490528 on 8 procs for 1 steps with 10 atoms

40.8% CPU use with 8 MPI tasks x no OpenMP threads

Minimization stats:
  Stopping criterion = force tolerance
  Energy initial, next-to-last, final = 
        -114.526413205     -114.526413205     -114.526413205
  Force two-norm initial, final = 9.99811e-07 9.99811e-07
  Force max component initial, final = 3.92407e-07 3.92407e-07
  Final line search alpha, max atom move = 0 0
  Iterations, force evaluations = 1 1

MPI task timing breakdown:
Section |  min time  |  avg time  |  max time  |%varavg| %total
---------------------------------------------------------------
Pair    | 8.323e-06  | 0.00032467 | 0.0015954  |   2.8 |  6.62
Bond    | 8.48e-07   | 1.5117e-06 | 2.709e-06  |   0.1 |  0.03
Neigh   | 0          | 0          | 0          |   0.0 |  0.00
Comm    | 0.0023774  | 0.0035124  | 0.0040347  |   1.1 | 71.60
Output  | 0          | 0          | 0          |   0.0 |  0.00
Modify  | 1.112e-06  | 1.6106e-06 | 2.328e-06  |   0.0 |  0.03
Other   |            | 0.001065   |            |       | 21.71

Nlocal:    1.25 ave 4 max 0 min
Histogram: 4 0 0 0 0 3 0 0 0 1
Nghost:    808.75 ave 810 max 806 min
Histogram: 1 0 0 0 0 3 0 0 0 4
Neighs:    331.125 ave 1694 max 0 min
Histogram: 5 1 0 1 0 0 0 0 0 1

Total # of neighbors = 2649
Ave neighs/atom = 264.9
Ave special neighs/atom = 1
Neighbor list builds = 0
Dangerous builds = 0
unfix ef
fix ef all efield -0.0375277674973 -0.0375277674973 -0.0375277674973
fix_modify ef energy yes
min_style fire
minimize 0.0 1e-06 20000 100000
WARNING: Resetting reneighboring criteria during minimization (/tmp/dan/spack-stage/spack-stage-5I_aA6/lammps-feature-CORESHELL-pol/src/min.cpp:168)
Memory usage per processor = 9.02352 Mbytes
Step TotEng E_pair E_vdwl E_coul E_long E_bond Fnorm Lx Ly Lz Temp Press Pxx Pyy Pzz 
   51118   -114.54066   -117.60606    16.239625   -133.84568            0    3.2505932  0.045369419         4.01         4.01    1.8971696            0   -110739.63   -165336.87   -165240.21   -1641.8074 
   51150   -114.54067   -117.61354    16.251202   -133.86474            0    3.2583569  0.032020017         4.01         4.01    1.8971696 0.00099550981   -110293.33   -164716.37    -164623.8   -1539.8097 
   51200   -114.54067    -117.6113    16.253345   -133.86464            0    3.2561444  0.016996705         4.01         4.01    1.8971696 0.0044848382   -110058.15   -164541.75   -164444.67   -1188.0279 
   51250   -114.54068   -117.61196    16.253799   -133.86576            0    3.2568676  0.013831694         4.01         4.01    1.8971696 0.0017902396   -110100.83   -164526.48   -164419.57   -1356.4315 
   51300   -114.54068   -117.61243    16.253947   -133.86638            0    3.2573806  0.010158272         4.01         4.01    1.8971696 0.0011391304   -110144.13   -164561.83   -164454.61   -1415.9571 
   51350   -114.54068   -117.61296    16.254072   -133.86703            0    3.2579626  0.006925919         4.01         4.01    1.8971696 1.3086592e-05   -110202.05   -164619.82   -164525.84   -1460.4905 
   51400   -114.54068    -117.6128     16.25449   -133.86729            0    3.2578403  0.012114599         4.01         4.01    1.8971696 0.0016925073   -110191.38   -164575.11   -164421.15   -1577.8744 
   51450   -114.54069   -117.61315    16.254338   -133.86749            0    3.2582174 0.0052636488         4.01         4.01    1.8971696 1.8804318e-05   -110236.59   -164632.14      -164529   -1548.6351 
   51500   -114.54069   -117.61323    16.254403   -133.86763            0    3.2583209 0.0045761987         4.01         4.01    1.8971696 0.00066698931   -110253.13   -164636.72   -164542.81   -1579.8537 
   51550   -114.54069   -117.61333    16.254485   -133.86781            0    3.2584472 0.0040553027         4.01         4.01    1.8971696 0.00033054817    -110268.6   -164652.42   -164544.99   -1608.3862 
   51600   -114.54069    -117.6134    16.254595   -133.86799            0    3.2585417 0.0057972601         4.01         4.01    1.8971696 2.1241597e-05   -110281.96   -164691.48   -164510.59   -1643.8019 
   51650   -114.54069   -117.61345    16.254627   -133.86808            0     3.258612 0.0030313094         4.01         4.01    1.8971696 6.1105258e-05   -110291.65   -164669.63   -164549.09   -1656.2138 
   51700   -114.54069    -117.6135      16.2547    -133.8682            0     3.258683 0.0033994095         4.01         4.01    1.8971696 5.8036145e-05   -110301.05   -164686.77    -164541.4   -1674.9884 
   51750   -114.54069   -117.61356    16.254718   -133.86827            0    3.2587491 0.0023981003         4.01         4.01    1.8971696 4.2613191e-05   -110311.24    -164657.9   -164582.48   -1693.3326 
   51800   -114.54069   -117.61358    16.254739   -133.86832            0    3.2587815 0.0018168199         4.01         4.01    1.8971696 4.7869747e-05   -110316.35   -164669.25   -164575.78   -1704.0081 
   51850   -114.54069   -117.61361    16.254787   -133.86839            0    3.2588197 0.0018889407         4.01         4.01    1.8971696 2.5522554e-05    -110320.3    -164685.6   -164562.68   -1712.6236 
   51900   -114.54069   -117.61364    16.254796   -133.86843            0    3.2588541 0.0013716587         4.01         4.01    1.8971696 2.1525064e-05   -110325.69   -164677.99   -164576.29   -1722.8062 
   51950   -114.54069   -117.61366    16.254829   -133.86849            0    3.2588911 0.0016334992         4.01         4.01    1.8971696 8.6888956e-07   -110330.07   -164691.09   -164566.95   -1732.1865 
   52000   -114.54069   -117.61368    16.254844   -133.86852            0    3.2589119 0.0011583453         4.01         4.01    1.8971696 5.2720137e-07   -110333.08    -164687.3   -164573.72   -1738.2017 
   52050   -114.54069    -117.6137    16.254877   -133.86858            0    3.2589403 0.0010305438         4.01         4.01    1.8971696 1.1478257e-07   -110335.33   -164678.73   -164583.31   -1743.9524 
   52100   -114.54069   -117.61371    16.254887    -133.8686            0    3.2589537 0.00081674176         4.01         4.01    1.8971696 6.3592121e-07   -110337.38   -164682.92   -164580.94   -1748.2852 
   52150   -114.54069   -117.61372    16.254902   -133.86862            0    3.2589673 0.00070583005         4.01         4.01    1.8971696 6.0944057e-07   -110339.01   -164684.22   -164580.76   -1752.0644 
   52200   -114.54069   -117.61373    16.254914   -133.86865            0    3.2589818 0.00084319119         4.01         4.01    1.8971696 9.4604012e-06   -110340.74   -164681.34   -164585.07   -1755.8145 
   52250   -114.54069   -117.61375    16.254934   -133.86868            0    3.2589996 0.00060996112         4.01         4.01    1.8971696 4.8776189e-06   -110342.15   -164689.61   -164577.61   -1759.2449 
   52300   -114.54069   -117.61376    16.254951   -133.86871            0     3.259015 0.00046345091         4.01         4.01    1.8971696 1.8913138e-07   -110343.66   -164687.47   -164580.72    -1762.792 
   52350   -114.54069   -117.61376    16.254964   -133.86873            0    3.2590247 0.00042719265         4.01         4.01    1.8971696 1.2216427e-06   -110344.53   -164686.47   -164581.98   -1765.1297 
   52400   -114.54069   -117.61377     16.25497   -133.86874            0    3.2590336 0.00052030007         4.01         4.01    1.8971696 1.6325913e-07   -110345.64    -164685.5   -164583.83   -1767.6015 
   52450   -114.54069   -117.61377    16.254976   -133.86875            0    3.2590379 0.00033982556         4.01         4.01    1.8971696 7.2585916e-10   -110346.25   -164690.94   -164578.82   -1768.9912 
   52500   -114.54069   -117.61378    16.254987   -133.86877            0     3.259048 0.00042748604         4.01         4.01    1.8971696 3.5274042e-06   -110347.06   -164686.86   -164583.42   -1770.8934 
   52550   -114.54069   -117.61379    16.254993   -133.86878            0    3.2590535 0.00029025333         4.01         4.01    1.8971696 1.5337613e-09   -110347.59   -164688.37   -164582.17   -1772.2429 
   52600   -114.54069   -117.61379    16.254997   -133.86879            0    3.2590583 0.00019862924         4.01         4.01    1.8971696 1.352177e-07   -110348.11   -164690.84   -164580.06   -1773.4379 
   52650   -114.54069   -117.61379    16.254999   -133.86879            0    3.2590602 0.0001728645         4.01         4.01    1.8971696 2.9547201e-07   -110348.45   -164690.56   -164580.69   -1774.0962 
   52700   -114.54069   -117.61379    16.255003    -133.8688            0    3.2590641 0.00014910136         4.01         4.01    1.8971696 2.725778e-07   -110348.87   -164690.97   -164580.58   -1775.0577 
   52750   -114.54069    -117.6138    16.255006    -133.8688            0    3.2590675 0.00013728772         4.01         4.01    1.8971696 1.2556137e-10   -110349.22   -164691.92   -164579.85   -1775.8997 
   52800   -114.54069    -117.6138     16.25501   -133.86881            0    3.2590706 0.00013578541         4.01         4.01    1.8971696 1.5242796e-09   -110349.46   -164690.99   -164580.87   -1776.5257 
   52850   -114.54069    -117.6138    16.255013   -133.86881            0    3.2590734 0.00011664413         4.01         4.01    1.8971696 2.0309217e-10   -110349.74   -164692.49   -164579.56   -1777.1527 
   52900   -114.54069    -117.6138    16.255014   -133.86882            0    3.2590745 0.00010885993         4.01         4.01    1.8971696 2.3920693e-09    -110349.9   -164692.77    -164579.4   -1777.5184 
   52950   -114.54069    -117.6138    16.255017   -133.86882            0    3.2590769 0.00013095509         4.01         4.01    1.8971696 7.9281296e-10    -110350.1   -164691.44   -164580.87   -1778.0014 
   53000   -114.54069    -117.6138    16.255018   -133.86882            0    3.2590779 7.1022746e-05         4.01         4.01    1.8971696 7.446703e-09   -110350.21   -164692.77   -164579.59   -1778.2819 
   53050   -114.54069   -117.61381     16.25502   -133.86883            0    3.2590795 5.8714239e-05         4.01         4.01    1.8971696 1.8636985e-09   -110350.38   -164692.64   -164579.82   -1778.6898 
   53100   -114.54069   -117.61381    16.255021   -133.86883            0    3.2590808 5.5406085e-05         4.01         4.01    1.8971696 4.0184956e-09   -110350.47   -164693.11   -164579.37   -1778.9489 
   53150   -114.54069   -117.61381    16.255023   -133.86883            0     3.259082 4.552106e-05         4.01         4.01    1.8971696 4.8918331e-10   -110350.58   -164693.01   -164579.51   -1779.2067 
   53200   -114.54069   -117.61381    16.255024   -133.86883            0    3.2590831 4.6243871e-05         4.01         4.01    1.8971696 1.6370646e-08   -110350.65   -164693.46   -164579.06    -1779.449 
   53250   -114.54069   -117.61381    16.255025   -133.86883            0     3.259084 3.9484833e-05         4.01         4.01    1.8971696 2.9548681e-08   -110350.77   -164693.55   -164579.07   -1779.6886 
   53300   -114.54069   -117.61381    16.255025   -133.86884            0    3.2590846 6.2175952e-05         4.01         4.01    1.8971696 3.0139784e-08   -110350.83   -164693.02   -164579.66   -1779.8222 
   53350   -114.54069   -117.61381    16.255026   -133.86884            0    3.2590852 2.6420256e-05         4.01         4.01    1.8971696 1.182721e-09   -110350.89    -164693.7   -164579.01   -1779.9631 
   53400   -114.54069   -117.61381    16.255027   -133.86884            0    3.2590856 2.7030172e-05         4.01         4.01    1.8971696 4.3064437e-09   -110350.93    -164693.6   -164579.11   -1780.0651 
   53450   -114.54069   -117.61381    16.255027   -133.86884            0     3.259086 2.183214e-05         4.01         4.01    1.8971696 2.8724512e-09   -110350.98   -164693.77   -164578.99   -1780.1669 
   53500   -114.54069   -117.61381    16.255028   -133.86884            0    3.2590864 2.6292411e-05         4.01         4.01    1.8971696 3.3363752e-09   -110351.01   -164694.18   -164578.58   -1780.2633 
   53550   -114.54069   -117.61381    16.255028   -133.86884            0    3.2590871 6.6979945e-05         4.01         4.01    1.8971696 1.0394786e-09   -110351.07   -164693.56   -164579.27    -1780.395 
   53600   -114.54069   -117.61381    16.255028   -133.86884            0    3.2590871 1.5717514e-05         4.01         4.01    1.8971696 7.0498472e-10   -110351.08    -164694.3   -164578.51   -1780.4212 
   53650   -114.54069   -117.61381    16.255029   -133.86884            0    3.2590875 1.0898432e-05         4.01         4.01    1.8971696 1.1597374e-09    -110351.1   -164694.31   -164578.51   -1780.4859 
   53700   -114.54069   -117.61381    16.255029   -133.86884            0    3.2590876 1.2011871e-05         4.01         4.01    1.8971696 1.6412466e-09   -110351.12   -164694.46   -164578.37   -1780.5322 
   53750   -114.54069   -117.61381    16.255029   -133.86884            0    3.2590878 9.2276027e-06         4.01         4.01    1.8971696 9.6024743e-10   -110351.14    -164694.5   -164578.33   -1780.5713 
   53800   -114.54069   -117.61381    16.255029   -133.86884            0    3.2590882 2.5475719e-05         4.01         4.01    1.8971696 1.4192518e-09   -110351.18   -164694.39   -164578.48   -1780.6567 
   53850   -114.54069   -117.61381     16.25503   -133.86884            0    3.2590882 9.1490089e-06         4.01         4.01    1.8971696 2.6109123e-10   -110351.17   -164694.62   -164578.24   -1780.6646 
   53900   -114.54069   -117.61381     16.25503   -133.86884            0    3.2590884 6.298883e-06         4.01         4.01    1.8971696 1.8623937e-10   -110351.18   -164694.74   -164578.13   -1780.6905 
   53950   -114.54069   -117.61381     16.25503   -133.86884            0    3.2590885 7.2354