ITEM: TIMESTEP
0
ITEM: NUMBER OF ATOMS
100
ITEM: BOX BOUNDS xy xz yz pp pp ss
0.0000000000000000e+00 8.0598929175976988e+00 2.6595278398500000e-02
0.0000000000000000e+00 2.0116488195996201e+01 1.3297639199200000e-02
-1.0029412042728328e-03 2.0060029412042728e+00 6.6488195996199997e-02
ITEM: ATOMS id type c_dr[1] c_dr[2] c_dr[3] 
1 1 -1.69407e-21 0 0 
2 2 -1.69407e-21 0 0 
3 3 8.88178e-16 0 0 
4 4 8.88178e-16 0 0 
18 6 0 0 0 
17 5 0 0 0 
12 2 0 0 0 
11 1 0 0 0 
9 5 8.88178e-16 0 0 
10 6 8.88178e-16 0 0 
55 5 0 0 0 
56 6 0 0 0 
13 3 8.88178e-16 0 0 
14 4 8.88178e-16 0 0 
28 6 8.88178e-16 0 0 
27 5 8.88178e-16 0 0 
19 5 8.88178e-16 0 0 
20 6 8.88178e-16 0 0 
21 1 -3.46945e-18 0 0 
22 2 -3.46945e-18 0 0 
23 3 0 0 0 
24 4 0 0 0 
65 5 0 0 0 
66 6 0 0 0 
75 5 -1.77636e-15 0 0 
76 6 -1.77636e-15 0 0 
40 6 8.88178e-16 0 0 
39 5 8.88178e-16 0 0 
38 6 8.88178e-16 0 0 
37 5 8.88178e-16 0 0 
29 5 0 0 0 
30 6 0 0 0 
31 1 -6.93889e-18 0 0 
32 2 -6.93889e-18 0 0 
33 3 8.88178e-16 0 0 
34 4 8.88178e-16 0 0 
85 5 -1.77636e-15 0 0 
86 6 -1.77636e-15 0 0 
41 1 -6.93889e-18 0 0 
42 2 -6.93889e-18 0 0 
43 3 8.88178e-16 0 0 
44 4 8.88178e-16 0 0 
50 6 8.88178e-16 0 0 
49 5 8.88178e-16 0 0 
47 5 8.88178e-16 0 0 
48 6 8.88178e-16 0 0 
7 5 8.88178e-16 0 0 
8 6 8.88178e-16 0 0 
95 5 0 0 0 
96 6 0 0 0 
51 1 0 0 0 
52 2 0 0 0 
53 3 0 0 0 
54 4 0 0 0 
68 6 0 0 0 
67 5 0 0 0 
62 2 0 0 0 
61 1 0 0 0 
59 5 0 0 0 
60 6 0 0 0 
5 5 0 0 0 
6 6 0 0 0 
63 3 0 0 0 
64 4 0 0 0 
78 6 0 0 0 
77 5 0 0 0 
69 5 -1.77636e-15 0 0 
70 6 -1.77636e-15 0 0 
71 1 0 0 0 
72 2 0 0 0 
15 5 -3.55271e-15 0 0 
16 6 -3.55271e-15 0 0 
25 5 3.55271e-15 0 0 
26 6 3.55271e-15 0 0 
73 3 -1.77636e-15 0 0 
74 4 -1.77636e-15 0 0 
90 6 0 0 0 
89 5 0 0 0 
88 6 0 0 0 
87 5 0 0 0 
79 5 0 0 0 
80 6 0 0 0 
81 1 1.77636e-15 0 0 
82 2 1.77636e-15 0 0 
83 3 -1.77636e-15 0 0 
84 4 -1.77636e-15 0 0 
35 5 0 0 0 
36 6 0 0 0 
91 1 0 0 0 
92 2 0 0 0 
93 3 0 0 0 
94 4 0 0 0 
100 6 0 0 0 
99 5 0 0 0 
97 5 0 0 0 
98 6 0 0 0 
45 5 0 0 0 
46 6 0 0 0 
57 5 0 0 0 
58 6 0 0 0 
ITEM: TIMESTEP
100
ITEM: NUMBER OF ATOMS
100
ITEM: BOX BOUNDS xy xz yz pp pp ss
0.0000000000000000e+00 8.0598929175976988e+00 2.6595278398500000e-02
0.0000000000000000e+00 2.0116488195996201e+01 1.3297639199200000e-02
-1.0029412042728328e-03 2.0060029412042728e+00 6.6488195996199997e-02
ITEM: ATOMS id type c_dr[1] c_dr[2] c_dr[3] 
1 1 0.00211212 0.0125071 0.0447154 
2 2 0.00242064 0.0137426 0.00147024 
3 3 -0.00497192 -0.0194889 -0.144118 
4 4 -0.00409903 -0.0176021 -0.0823269 
18 6 -0.000803281 -0.0132054 -0.0245258 
17 5 -0.000708992 -0.0139829 0.0286471 
12 2 0.00242064 0.0137426 0.00147024 
11 1 0.00211212 0.0125071 0.0447154 
9 5 0.00476037 0.0224313 0.0464928 
10 6 0.00595605 0.0282038 0.161581 
55 5 -0.00200694 -0.00499318 0.0287028 
56 6 -0.000616759 -0.00591763 -0.0245833 
13 3 -0.00497192 -0.0194889 -0.144118 
14 4 -0.00409903 -0.0176021 -0.0823269 
28 6 -0.000803281 -0.0132054 -0.0245258 
27 5 -0.000708992 -0.0139829 0.0286471 
19 5 0.00476037 0.0224313 0.0464928 
20 6 0.00595605 0.0282038 0.161581 
21 1 0.00211212 0.0125071 0.0447154 
22 2 0.00242064 0.0137426 0.00147024 
23 3 -0.00497192 -0.0194889 -0.144118 
24 4 -0.00409903 -0.0176021 -0.0823269 
65 5 -0.00200694 -0.00499318 0.0287028 
66 6 -0.000616759 -0.00591763 -0.0245833 
75 5 -0.00200694 -0.00499318 0.0287028 
76 6 -0.000616759 -0.00591763 -0.0245833 
40 6 0.00595605 0.0282038 0.161581 
39 5 0.00476037 0.0224313 0.0464928 
38 6 -0.000803281 -0.0132054 -0.0245258 
37 5 -0.000708992 -0.0139829 0.0286471 
29 5 0.00476037 0.0224313 0.0464928 
30 6 0.00595605 0.0282038 0.161581 
31 1 0.00211212 0.0125071 0.0447154 
32 2 0.00242064 0.0137426 0.00147024 
33 3 -0.00497192 -0.0194889 -0.144118 
34 4 -0.00409903 -0.0176021 -0.0823269 
85 5 -0.00200694 -0.00499318 0.0287028 
86 6 -0.000616759 -0.00591763 -0.0245833 
41 1 0.00211212 0.0125071 0.0447154 
42 2 0.00242064 0.0137426 0.00147024 
43 3 -0.00497192 -0.0194889 -0.144118 
44 4 -0.00409903 -0.0176021 -0.0823269 
50 6 0.00595605 0.0282038 0.161581 
49 5 0.00476037 0.0224313 0.0464928 
47 5 -0.000708992 -0.0139829 0.0286471 
48 6 -0.000803281 -0.0132054 -0.0245258 
7 5 -0.000708992 -0.0139829 0.0286471 
8 6 -0.000803281 -0.0132054 -0.0245258 
95 5 -0.00200694 -0.00499318 0.0287028 
96 6 -0.000616759 -0.00591763 -0.0245833 
51 1 0.00211212 0.0125071 0.0447154 
52 2 0.00242064 0.0137426 0.00147024 
53 3 -0.00497192 -0.0194889 -0.144118 
54 4 -0.00409903 -0.0176021 -0.0823269 
68 6 -0.000803281 -0.0132054 -0.0245258 
67 5 -0.000708992 -0.0139829 0.0286471 
62 2 0.00242064 0.0137426 0.00147024 
61 1 0.00211212 0.0125071 0.0447154 
59 5 0.00476037 0.0224313 0.0464928 
60 6 0.00595605 0.0282038 0.161581 
5 5 -0.00200694 -0.00499318 0.0287028 
6 6 -0.000616759 -0.00591763 -0.0245833 
63 3 -0.00497192 -0.0194889 -0.144118 
64 4 -0.00409903 -0.0176021 -0.0823269 
78 6 -0.000803281 -0.0132054 -0.0245258 
77 5 -0.000708992 -0.0139829 0.0286471 
69 5 0.00476037 0.0224313 0.0464928 
70 6 0.00595605 0.0282038 0.161581 
71 1 0.00211212 0.0125071 0.0447154 
72 2 0.00242064 0.0137426 0.00147024 
15 5 -0.00200694 -0.00499318 0.0287028 
16 6 -0.000616759 -0.00591763 -0.0245833 
25 5 -0.00200694 -0.00499318 0.0287028 
26 6 -0.000616759 -0.00591763 -0.0245833 
73 3 -0.00497192 -0.0194889 -0.144118 
74 4 -0.00409903 -0.0176021 -0.0823269 
90 6 0.00595605 0.0282038 0.161581 
89 5 0.00476037 0.0224313 0.0464928 
88 6 -0.000803281 -0.0132054 -0.0245258 
87 5 -0.000708992 -0.0139829 0.0286471 
79 5 0.00476037 0.0224313 0.0464928 
80 6 0.00595605 0.0282038 0.161581 
81 1 0.00211212 0.0125071 0.0447154 
82 2 0.00242064 0.0137426 0.00147024 
83 3 -0.00497192 -0.0194889 -0.144118 
84 4 -0.00409903 -0.0176021 -0.0823269 
35 5 -0.00200694 -0.00499318 0.0287028 
36 6 -0.000616759 -0.00591763 -0.0245833 
91 1 0.00211212 0.0125071 0.0447154 
92 2 0.00242064 0.0137426 0.00147024 
93 3 -0.00497192 -0.0194889 -0.144118 
94 4 -0.00409903 -0.0176021 -0.0823269 
100 6 0.00595605 0.0282038 0.161581 
99 5 0.00476037 0.0224313 0.0464928 
97 5 -0.000708992 -0.0139829 0.0286471 
98 6 -0.000803281 -0.0132054 -0.0245258 
45 5 -0.00200694 -0.00499318 0.0287028 
46 6 -0.000616759 -0.00591763 -0.0245833 
57 5 -0.000708992 -0.0139829 0.0286471 
58 6 -0.000803281 -0.0132054 -0.0245258 
ITEM: TIMESTEP
200
ITEM: NUMBER OF ATOMS
100
ITEM: BOX BOUNDS xy xz yz pp pp ss
0.0000000000000000e+00 8.0598929175976988e+00 2.6595278398500000e-02
0.0000000000000000e+00 2.0116488195996201e+01 1.3297639199200000e-02
-1.0029412042728328e-03 2.0060029412042728e+00 6.6488195996199997e-02
ITEM: ATOMS id type c_dr[1] c_dr[2] c_dr[3] 
1 1 0.0031004 0.0186698 0.0641904 
2 2 0.0033943 0.019722 0.0207124 
3 3 -0.00798637 -0.0285936 -0.153734 
4 4 -0.00627271 -0.0251697 -0.0924875 
18 6 -0.00135032 -0.00888572 -0.0325435 
17 5 -0.00117874 -0.0152409 0.0214493 
12 2 0.0033943 0.019722 0.0207124 
11 1 0.0031004 0.0186698 0.0641904 
9 5 0.00650179 0.0304064 0.0450576 
10 6 0.00711569 0.0335276 0.160924 
55 5 -0.00118721 -0.00955315 0.0215475 
56 6 0.00251204 -0.0107763 -0.0325402 
13 3 -0.00798637 -0.0285936 -0.153734 
14 4 -0.00627271 -0.0251697 -0.0924875 
28 6 -0.00135032 -0.00888572 -0.0325435 
27 5 -0.00117874 -0.0152409 0.0214493 
19 5 0.00650179 0.0304064 0.0450576 
20 6 0.00711569 0.0335276 0.160924 
21 1 0.0031004 0.0186698 0.0641904 
22 2 0.0033943 0.019722 0.0207124 
23 3 -0.00798637 -0.0285936 -0.153734 
24 4 -0.00627271 -0.0251697 -0.0924875 
65 5 -0.00118721 -0.00955315 0.0215475 
66 6 0.00251204 -0.0107763 -0.0325402 
75 5 -0.00118721 -0.00955315 0.0215475 
76 6 0.00251204 -0.0107763 -0.0325402 
40 6 0.00711569 0.0335276 0.160924 
39 5 0.00650179 0.0304064 0.0450576 
38 6 -0.00135032 -0.00888572 -0.0325435 
37 5 -0.00117874 -0.0152409 0.0214493 
29 5 0.00650179 0.0304064 0.0450576 
30 6 0.00711569 0.0335276 0.160924 
31 1 0.0031004 0.0186698 0.0641904 
32 2 0.0033943 0.019722 0.0207124 
33 3 -0.00798637 -0.0285936 -0.153734 
34 4 -0.00627271 -0.0251697 -0.0924875 
85 5 -0.00118721 -0.00955315 0.0215475 
86 6 0.00251204 -0.0107763 -0.0325402 
41 1 0.0031004 0.0186698 0.0641904 
42 2 0.0033943 0.019722 0.0207124 
43 3 -0.00798637 -0.0285936 -0.153734 
44 4 -0.00627271 -0.0251697 -0.0924875 
50 6 0.00711569 0.0335276 0.160924 
49 5 0.00650179 0.0304064 0.0450576 
47 5 -0.00117874 -0.0152409 0.0214493 
48 6 -0.00135032 -0.00888572 -0.0325435 
7 5 -0.00117874 -0.0152409 0.0214493 
8 6 -0.00135032 -0.00888572 -0.0325435 
95 5 -0.00118721 -0.00955315 0.0215475 
96 6 0.00251204 -0.0107763 -0.0325402 
51 1 0.0031004 0.0186698 0.0641904 
52 2 0.0033943 0.019722 0.0207124 
53 3 -0.00798637 -0.0285936 -0.153734 
54 4 -0.00627271 -0.0251697 -0.0924875 
68 6 -0.00135032 -0.00888572 -0.0325435 
67 5 -0.00117874 -0.0152409 0.0214493 
62 2 0.0033943 0.019722 0.0207124 
61 1 0.0031004 0.0186698 0.0641904 
59 5 0.00650179 0.0304064 0.0450576 
60 6 0.00711569 0.0335276 0.160924 
5 5 -0.00118721 -0.00955315 0.0215475 
6 6 0.00251204 -0.0107763 -0.0325402 
63 3 -0.00798637 -0.0285936 -0.153734 
64 4 -0.00627271 -0.0251697 -0.0924875 
78 6 -0.00135032 -0.00888572 -0.0325435 
77 5 -0.00117874 -0.0152409 0.0214493 
69 5 0.00650179 0.0304064 0.0450576 
70 6 0.00711569 0.0335276 0.160924 
71 1 0.0031004 0.0186698 0.0641904 
72 2 0.0033943 0.019722 0.0207124 
15 5 -0.00118721 -0.00955315 0.0215475 
16 6 0.00251204 -0.0107763 -0.0325402 
25 5 -0.00118721 -0.00955315 0.0215475 
26 6 0.00251204 -0.0107763 -0.0325402 
73 3 -0.00798637 -0.0285936 -0.153734 
74 4 -0.00627271 -0.0251697 -0.0924875 
90 6 0.00711569 0.0335276 0.160924 
89 5 0.00650179 0.0304064 0.0450576 
88 6 -0.00135032 -0.00888572 -0.0325435 
87 5 -0.00117874 -0.0152409 0.0214493 
79 5 0.00650179 0.0304064 0.0450576 
80 6 0.00711569 0.0335276 0.160924 
81 1 0.0031004 0.0186698 0.0641904 
82 2 0.0033943 0.019722 0.0207124 
83 3 -0.00798637 -0.0285936 -0.153734 
84 4 -0.00627271 -0.0251697 -0.0924875 
35 5 -0.00118721 -0.00955315 0.0215475 
36 6 0.00251204 -0.0107763 -0.0325402 
91 1 0.0031004 0.0186698 0.0641904 
92 2 0.0033943 0.019722 0.0207124 
93 3 -0.00798637 -0.0285936 -0.153734 
94 4 -0.00627271 -0.0251697 -0.0924875 
100 6 0.00711569 0.0335276 0.160924 
99 5 0.00650179 0.0304064 0.0450576 
97 5 -0.00117874 -0.0152409 0.0214493 
98 6 -0.00135032 -0.00888572 -0.0325435 
45 5 -0.00118721 -0.00955315 0.0215475 
46 6 0.00251204 -0.0107763 -0.0325402 
57 5 -0.00117874 -0.0152409 0.0214493 
58 6 -0.00135032 -0.00888572 -0.0325435 
ITEM: TIMESTEP
300
ITEM: NUMBER OF ATOMS
100
ITEM: BOX BOUNDS xy xz yz pp pp ss
0.0000000000000000e+00 8.0598929175976988e+00 2.6595278398500000e-02
0.0000000000000000e+00 2.0116488195996201e+01 1.3297639199200000e-02
-1.0029412042728328e-03 2.0060029412042728e+00 6.6488195996199997e-02
ITEM: ATOMS id type c_dr[1] c_dr[2] c_dr[3] 
1 1 0.0035973 0.022229 0.0742047 
2 2 0.00389694 0.0232283 0.0306436 
3 3 -0.0108028 -0.0356952 -0.158133 
4 4 -0.00814613 -0.0303806 -0.0951944 
18 6 -0.00134685 -0.0017402 -0.0364304 
17 5 -0.00112702 -0.013437 0.0175194 
12 2 0.00389694 0.0232283 0.0306436 
11 1 0.0035973 0.022229 0.0742047 
9 5 0.00731116 0.0338439 0.0433739 
10 6 0.00761957 0.0357345 0.160004 
55 5 0.000335761 -0.0119088 0.0176442 
56 6 0.00651885 -0.013178 -0.0364408 
13 3 -0.0108028 -0.0356952 -0.158133 
14 4 -0.00814613 -0.0303806 -0.0951944 
28 6 -0.00134685 -0.0017402 -0.0364304 
27 5 -0.00112702 -0.013437 0.0175194 
19 5 0.00731116 0.0338439 0.0433739 
20 6 0.00761957 0.0357345 0.160004 
21 1 0.0035973 0.022229 0.0742047 
22 2 0.00389694 0.0232283 0.0306436 
23 3 -0.0108028 -0.0356952 -0.158133 
24 4 -0.00814613 -0.0303806 -0.0951944 
65 5 0.000335761 -0.0119088 0.0176442 
66 6 0.00651885 -0.013178 -0.0364408 
75 5 0.000335761 -0.0119088 0.0176442 
76 6 0.00651885 -0.013178 -0.0364408 
40 6 0.00761957 0.0357345 0.160004 
39 5 0.00731116 0.0338439 0.0433739 
38 6 -0.00134685 -0.0017402 -0.0364304 
37 5 -0.00112702 -0.013437 0.0175194 
29 5 0.00731116 0.0338439 0.0433739 
30 6 0.00761957 0.0357345 0.160004 
31 1 0.0035973 0.022229 0.0742047 
32 2 0.00389694 0.0232283 0.0306436 
33 3 -0.0108028 -0.0356952 -0.158133 
34 4 -0.00814613 -0.0303806 -0.0951944 
85 5 0.000335761 -0.0119088 0.0176442 
86 6 0.00651885 -0.013178 -0.0364408 
41 1 0.0035973 0.022229 0.0742047 
42 2 0.00389694 0.0232283 0.0306436 
43 3 -0.0108028 -0.0356952 -0.158133 
44 4 -0.00814613 -0.0303806 -0.0951944 
50 6 0.00761957 0.0357345 0.160004 
49 5 0.00731116 0.0338439 0.0433739 
47 5 -0.00112702 -0.013437 0.0175194 
48 6 -0.00134685 -0.0017402 -0.0364304 
7 5 -0.00112702 -0.013437 0.0175194 
8 6 -0.00134685 -0.0017402 -0.0364304 
95 5 0.000335761 -0.0119088 0.0176442 
96 6 0.00651885 -0.013178 -0.0364408 
51 1 0.0035973 0.022229 0.0742047 
52 2 0.00389694 0.0232283 0.0306436 
53 3 -0.0108028 -0.0356952 -0.158133 
54 4 -0.00814613 -0.0303806 -0.0951944 
68 6 -0.00134685 -0.0017402 -0.0364304 
67 5 -0.00112702 -0.013437 0.0175194 
62 2 0.00389694 0.0232283 0.0306436 
61 1 0.0035973 0.022229 0.0742047 
59 5 0.00731116 0.0338439 0.0433739 
60 6 0.00761957 0.0357345 0.160004 
5 5 0.000335761 -0.0119088 0.0176442 
6 6 0.00651885 -0.013178 -0.0364408 
63 3 -0.0108028 -0.0356952 -0.158133 
64 4 -0.00814613 -0.0303806 -0.0951944 
78 6 -0.00134685 -0.0017402 -0.0364304 
77 5 -0.00112702 -0.013437 0.0175194 
69 5 0.00731116 0.0338439 0.0433739 
70 6 0.00761957 0.0357345 0.160004 
71 1 0.0035973 0.022229 0.0742047 
72 2 0.00389694 0.0232283 0.0306436 
15 5 0.000335761 -0.0119088 0.0176442 
16 6 0.00651885 -0.013178 -0.0364408 
25 5 0.000335761 -0.0119088 0.0176442 
26 6 0.00651885 -0.013178 -0.0364408 
73 3 -0.0108028 -0.0356952 -0.158133 
74 4 -0.00814613 -0.0303806 -0.0951944 
90 6 0.00761957 0.0357345 0.160004 
89 5 0.00731116 0.0338439 0.0433739 
88 6 -0.00134685 -0.0017402 -0.0364304 
87 5 -0.00112702 -0.013437 0.0175194 
79 5 0.00731116 0.0338439 0.0433739 
80 6 0.00761957 0.0357345 0.160004 
81 1 0.0035973 0.022229 0.0742047 
82 2 0.00389694 0.0232283 0.0306436 
83 3 -0.0108028 -0.0356952 -0.158133 
84 4 -0.00814613 -0.0303806 -0.0951944 
35 5 0.000335761 -0.0119088 0.0176442 
36 6 0.00651885 -0.013178 -0.0364408 
91 1 0.0035973 0.022229 0.0742047 
92 2 0.00389694 0.0232283 0.0306436 
93 3 -0.0108028 -0.0356952 -0.158133 
94 4 -0.00814613 -0.0303806 -0.0951944 
100 6 0.00761957 0.0357345 0.160004 
99 5 0.00731116 0.0338439 0.0433739 
97 5 -0.00112702 -0.013437 0.0175194 
98 6 -0.00134685 -0.0017402 -0.0364304 
45 5 0.000335761 -0.0119088 0.0176442 
46 6 0.00651885 -0.013178 -0.0364408 
57 5 -0.00112702 -0.013437 0.0175194 
58 6 -0.00134685 -0.0017402 -0.0364304 
