LAMMPS (7 Sep 2016)
# Input file for lammps simulation using the Isotropic-anharmonic Shell Model
# proposed by Vielma and Schneider based on PBE Generalized Gradient
# Approximation(GGA) to Density Functional Theory(DFT):
# [Vielma Schneider 2013](http://dx.doi.org/10.1063/1.4827475)

# Vishal Boddu, June 2016

# ------------------------ INITIALIZATION ---------------------------------

units 		metal
dimension	3
boundary	p	p	p
atom_style	full

# ----------------------- ATOM DEFINITION ----------------------------

fix csinfo all property/atom i_CSID
read_data atom.data fix csinfo NULL CS-Info
  orthogonal box = (0 0 0) to (40.1 40.1 48.12)
  2 by 2 by 2 MPI processor grid
  reading atoms ...
  12000 atoms
  scanning bonds ...
  1 = max bonds/atom
  reading bonds ...
  6000 bonds
  1 = max # of 1-2 neighbors
  0 = max # of 1-3 neighbors
  0 = max # of 1-4 neighbors
  1 = max # of special neighbors

#change_box all x scale ${a} y scale ${b} z scale ${c} remap
#change_box all triclinic xy delta ${XY} xz delta ${XZ} yz delta ${YZ} remap
#change_box all triclinic xy delta 0.0 xz delta 0.0 yz delta 0.0 remap

group cores type 1 3 5
6000 atoms in group cores
group shells type 2 4 6
6000 atoms in group shells

neighbor 0.5 bin
neigh_modify delay 10 check yes
comm_modify vel yes

# ------------------------ FORCE FIELDS ------------------------------

#kspace_style ewald 1.0e-6
#pair_style   born/coul/long/cs 8.0
pair_style   born/coul/wolf/cs 0.25 16.0 14.5
#pair_style   born/coul/wolf 0.25 16.0 14.5

#------------------------ A,  rho, sigma=0,     C,      D
pair_coeff	*	*	 0.0000	1.0000	0.000	0.0000	0.000
pair_coeff	2	6	7149.81	0.3019	0.000	0.0000	0.000
pair_coeff	4	6	7200.27	0.2303	0.000	0.0000	0.000
pair_coeff	6	6	3719.60	0.3408	0.000	597.17	0.000
pair_modify tail no

bond_style class2
bond_coeff	1	0.0	149.255	0.0		   0.0000000
bond_coeff	2	0.0	153.070	0.0		 20.83333333
bond_coeff	3	0.0	 18.465	0.0		208.33333333
change_box all triclinic xy delta 0.159571670391 yz delta 0.132976391992 xz delta 0.132976391992 remap
  triclinic box = (0 0 0) to (40.1 40.1 48.12) with tilt (0 0 0)
  triclinic box = (0 0 0) to (40.1 40.1 48.12) with tilt (0.159572 0 0)
  triclinic box = (0 0 0) to (40.1 40.1 48.12) with tilt (0.159572 0 0.132976)
  triclinic box = (0 0 0) to (40.1 40.1 48.12) with tilt (0.159572 0.132976 0.132976)
compute dr all displace/atom
reset_timestep 0
dump dump_positions all atom 1000 atomdump
dump dump_displace all custom 1000 displdump id type c_dr[1] c_dr[2] c_dr[3]
thermo 100
thermo_style custom step etotal pe ke fnorm ecoul elong ebond temp press pxx pyy pzz lx ly lz
compute CSequ all temp/cs cores shells
thermo_modify temp CSequ
fix EF all efield 0.000289 0.000289 0.000289
fix_modify EF energy yes
min_style quickmin
minimize 0.0 1e-04 30000 100000
WARNING: Resetting reneighboring criteria during minimization (/tmp/iwtm861/spack-stage/spack-stage-WtJHS6/lammps-feature-CORESHELL-wolf/src/min.cpp:168)
Neighbor list info ...
  1 neighbor list requests
  update every 1 steps, delay 0 steps, check yes
  max neighbors/atom: 2000, page size: 100000
  master list distance cutoff = 16.5
  ghost atom cutoff = 16.5
  binsize = 8.25 -> bins = 5 5 6
Memory usage per processor = 17.9276 Mbytes
Step TotEng PotEng KinEng Fnorm E_coul E_long E_bond Temp Press Pxx Pyy Pzz Lx Ly Lz 
       0   -143372.58   -143372.58            0   0.15734111   -153381.82            0            0            0   -56323.289   -56358.426   -56305.988   -56305.452         40.1         40.1        48.12 
     100   -143372.49   -143372.49 0.0010891457   0.28864145   -153381.76            0  0.011152912  0.001404567   -56322.761   -56357.894   -56305.457    -56304.92         40.1         40.1        48.12 
     200   -143372.51   -143372.53  0.026861513    1.4799251   -153382.43            0    0.2351249  0.034640725   -56311.232   -56346.244   -56293.934    -56293.33         40.1         40.1        48.12 
     300   -143372.88   -143373.09   0.21471208    3.7318595   -153391.72            0     3.284439   0.27689363   -56153.828   -56186.371   -56137.197   -56135.052         40.1         40.1        48.12 
     400   -143375.69   -143376.88    1.1943392    8.9746757   -153457.18            0    24.716522     1.540225   -55045.552   -55071.008   -55025.459   -55031.884         40.1         40.1        48.12 
     500   -143401.46   -143410.12    8.6614542     23.54974   -154111.38            0    236.84194    11.169849   -43748.401   -43633.701   -43738.277   -43758.804         40.1         40.1        48.12 
     600   -143453.75   -143456.39    2.6404313    13.891063   -155566.97            0    694.53386    3.4051118   -17246.747   -17117.305    -17068.08   -17529.548         40.1         40.1        48.12 
     700    -143464.4   -143464.58   0.17381381     3.285954   -156294.71            0    916.10258   0.22415105   -3095.4754   -2960.5206   -2907.0824   -3417.7405         40.1         40.1        48.12 
     800   -143464.93   -143464.95   0.01927117    1.2433381   -156442.15            0    960.43169  0.024852185   -151.11362   -27.981941   -1.2756361   -423.94634         40.1         40.1        48.12 
     900   -143464.97   -143464.97 3.0044437e-06   0.14251147   -156466.87            0     967.8488 3.8745438e-06    345.16059    458.78623    471.08514    105.61137         40.1         40.1        48.12 
    1000   -143464.97   -143464.97 1.4895828e-05  0.019736614   -156471.64            0    969.28056 1.9209725e-05    441.11965     549.2695    553.84502    220.24445         40.1         40.1        48.12 
    1100   -143464.97   -143464.97 4.9669334e-08 0.0072585921   -156472.58            0    969.56069 6.4053791e-08     459.9095    565.13126    565.75593    248.84132         40.1         40.1        48.12 
    1200   -143464.97   -143464.97 3.256489e-07 0.0023166163   -156472.76            0    969.61608 4.1995824e-07    463.63222    567.32539    565.94237    257.62889         40.1         40.1        48.12 
    1300   -143464.97   -143464.97 3.2465321e-08 0.0015202061    -156472.8            0    969.62659 4.1867421e-08    464.34184    567.30869    564.99083    260.72599         40.1         40.1        48.12 
    1400   -143464.97   -143464.97 9.2536099e-09 0.00082199336   -156472.81            0     969.6292 1.1933496e-08       464.52    567.06147     564.2056    262.29293         40.1         40.1        48.12 
    1500   -143464.97   -143464.97 4.9227513e-10 0.00031379231   -156472.81            0    969.62978 6.3484017e-10    464.56073    566.87019    563.72601      263.086         40.1         40.1        48.12 
    1600   -143464.97   -143464.97 9.8645134e-12 0.00039095249   -156472.81            0    969.62991 1.272132e-11    464.57026    566.75416    563.45674    263.49989         40.1         40.1        48.12 
    1691   -143464.97   -143464.97 4.8061431e-11 9.5597359e-05   -156472.81            0    969.62993 6.1980232e-11    464.57234    566.70188    563.33926    263.67587         40.1         40.1        48.12 
Loop time of 4782.29 on 8 procs for 1691 steps with 12000 atoms

19.6% CPU use with 8 MPI tasks x no OpenMP threads

Minimization stats:
  Stopping criterion = force tolerance
  Energy initial, next-to-last, final = 
        -143372.579277     -143464.969311     -143464.969311
  Force two-norm initial, final = 0.157341 9.55974e-05
  Force max component initial, final = 0.00145714 2.69458e-06
  Final line search alpha, max atom move = 0 0
  Iterations, force evaluations = 1691 1691

MPI task timing breakdown:
Section |  min time  |  avg time  |  max time  |%varavg| %total
---------------------------------------------------------------
Pair    | 3186.8     | 3783.6     | 4511.9     | 663.6 | 79.12
Bond    | 0.18806    | 0.25186    | 0.32436    |   9.7 |  0.01
Neigh   | 0          | 0          | 0          |   0.0 |  0.00
Comm    | 265.98     | 994.15     | 1591.1     |1294.6 | 20.79
Output  | 0.062266   | 0.062706   | 0.064655   |   0.3 |  0.00
Modify  | 0.058518   | 0.078932   | 0.11368    |   6.9 |  0.00
Other   |            | 4.106      |            |       |  0.09

Nlocal:    1500 ave 1744 max 1276 min
Histogram: 2 0 0 0 4 0 0 0 0 2
Nghost:    24374 ave 24598 max 24130 min
Histogram: 2 0 0 0 0 4 0 0 0 2
Neighs:    2.16555e+06 ave 2.52006e+06 max 1.84025e+06 min
Histogram: 2 0 0 0 4 0 0 0 0 2

Total # of neighbors = 17324400
Ave neighs/atom = 1443.7
Ave special neighs/atom = 1
Neighbor list builds = 0
Dangerous builds = 0
unfix EF
min_style fire
minimize 0.0 1e-05 60000 100000
WARNING: Resetting reneighboring criteria during minimization (/tmp/iwtm861/spack-stage/spack-stage-WtJHS6/lammps-feature-CORESHELL-wolf/src/min.cpp:168)
Memory usage per processor = 18.6776 Mbytes
Step TotEng PotEng KinEng Fnorm E_coul E_long E_bond Temp Press Pxx Pyy Pzz Lx Ly Lz 
    1691   -143465.22   -143465.22            0   0.15734081   -156472.81            0    969.62993            0    464.57234    566.70188    563.33926    263.67587         40.1         40.1        48.12 
    1700   -143465.22   -143465.22 7.927507e-08   0.16365161   -156471.64            0    969.21694 1.0223348e-07    445.17913    547.28463    543.94845    244.30439         40.1         40.1        48.12 
    1800   -143465.22   -143465.22 4.6848189e-06  0.026187488   -156468.48            0     968.1969 6.041563e-06    385.44233    487.62739     484.1374    184.56224         40.1         40.1        48.12 
    1900   -143465.22   -143465.22 3.4355747e-07 0.0083820815   -156467.78            0    967.97335 4.4305322e-07    372.45652    474.79447    471.20124    171.37385         40.1         40.1        48.12 
    2000   -143465.22   -143465.22 1.470368e-07 0.0038976936    -156467.6            0    967.92735 1.896193e-07    368.26106    470.63067    466.98099    167.17151         40.1         40.1        48.12 
    2100   -143465.22   -143465.22 2.4170128e-08 0.0017742632   -156467.53            0    967.90321 3.1169903e-08    366.96843     469.4298    465.73707    165.73842         40.1         40.1        48.12 
    2200   -143465.22   -143465.22 4.3168915e-09 0.00072828908   -156467.49            0     967.8943 5.5670822e-09    366.17965    468.65181    464.93144     164.9557         40.1         40.1        48.12 
    2300   -143465.22   -143465.22 1.6649306e-09 0.00026370675   -156467.48            0    967.88944 2.1471017e-09    365.86142    468.37145    464.62656    164.58624         40.1         40.1        48.12 
    2400   -143465.22   -143465.22 2.754245e-12 0.00011662898   -156467.47            0    967.88778 3.5518865e-12    365.74557    468.27803    464.51773    164.44097         40.1         40.1        48.12 
    2500   -143465.22   -143465.22 5.3964909e-12 5.4582598e-05   -156467.47            0    967.88719 6.9593383e-12    365.70201    468.24529    464.47544     164.3853         40.1         40.1        48.12 
    2600   -143465.22   -143465.22 8.4669151e-11 0.00015568904   -156467.47            0    967.88692 1.0918971e-10    365.68311    468.24314    464.46595    164.34022         40.1         40.1        48.12 
    2700   -143465.22   -143465.22 2.7250432e-14 3.3234453e-05   -156467.47            0    967.88687 3.5142276e-14    365.67804    468.23688    464.45578    164.34147         40.1         40.1        48.12 
    2800   -143465.22   -143465.22 4.8700989e-12 3.4394316e-05   -156467.47            0    967.88684 6.2805009e-12     365.6761    468.23826    464.45488    164.33516         40.1         40.1        48.12 
    2900   -143465.22   -143465.22 1.0089998e-11 2.7844683e-05   -156467.47            0    967.88683 1.3012106e-11     365.6751    468.23924    464.45401    164.33204         40.1         40.1        48.12 
    3000   -143465.22   -143465.22 1.5610142e-13 2.3166476e-05   -156467.47            0    967.88683 2.0130907e-13    365.67468    468.23922     464.4527    164.33213         40.1         40.1        48.12 
    3100   -143465.22   -143465.22 2.985911e-13 1.9922801e-05   -156467.47            0    967.88682 3.8506439e-13     365.6745    468.24079    464.45344    164.32927         40.1         40.1        48.12 
    3200   -143465.22   -143465.22 2.6553782e-12 2.0741525e-05   -156467.47            0    967.88682 3.4243874e-12    365.67441    468.24089    464.45289    164.32947         40.1         40.1        48.12 
    3300   -143465.22   -143465.22 1.7925916e-12 1.9109003e-05   -156467.47            0    967.88682 2.311734e-12    365.67441    468.24207    464.45391    164.32727         40.1         40.1        48.12 
    3400   -143465.22   -143465.22 3.2074634e-12 2.2164906e-05   -156467.47            0    967.88682 4.1363588e-12    365.67441    468.24272    464.45438    164.32614         40.1         40.1        48.12 
    3500   -143465.22   -143465.22 2.5552604e-12 1.8641139e-05   -156467.47            0    967.88682 3.295275e-12     365.6744     468.2426    464.45407    164.32652         40.1         40.1        48.12 
    3600   -143465.22   -143465.22 2.4651759e-13 5.1773939e-05   -156467.47            0    967.88682 3.1791017e-13    365.67445    468.24445    464.45615    164.32276         40.1         40.1        48.12 
    3700   -143465.22   -143465.22 2.6890377e-14 2.9690543e-05   -156467.47            0    967.88682 3.4677948e-14    365.67435    468.24123    464.45221    164.32961         40.1         40.1        48.12 
    3800   -143465.22   -143465.22 5.2581097e-12 1.465955e-05   -156467.47            0    967.88682 6.7808813e-12    365.67439    468.24263    464.45384     164.3267         40.1         40.1        48.12 
    3900   -143465.22   -143465.22 1.3430784e-12 1.5490298e-05   -156467.47            0    967.88682 1.7320398e-12     365.6744    468.24289    464.45412    164.32618         40.1         40.1        48.12 
    4000   -143465.22   -143465.22 1.2940296e-12 1.8420673e-05   -156467.47            0    967.88682 1.6687863e-12    365.67441    468.24315    464.45443    164.32564         40.1         40.1        48.12 
    4100   -143465.22   -143465.22 9.2179011e-15 4.4338272e-05   -156467.47            0    967.88682 1.1887446e-14    365.67433     468.2407    464.45145    164.33083         40.1         40.1        48.12 
    4200   -143465.22   -143465.22 1.2760673e-14 1.671243e-05   -156467.47            0    967.88682 1.645622e-14    365.67437    468.24203    464.45304    164.32804         40.1         40.1        48.12 
    4300   -143465.22   -143465.22 1.4906324e-12 1.1081827e-05   -156467.47            0    967.88682 1.9223261e-12    365.67439    468.24269    464.45384    164.32663         40.1         40.1        48.12 
    4400   -143465.22   -143465.22 1.4730551e-13 1.0982987e-05   -156467.47            0    967.88682 1.8996583e-13    365.67438    468.24242    464.45351     164.3272         40.1         40.1        48.12 
    4459   -143465.22   -143465.22 1.3306094e-12 9.9129312e-06   -156467.47            0    967.88682 1.7159597e-12    365.67439    468.24263    464.45376    164.32677         40.1         40.1        48.12 
Loop time of 7403.36 on 8 procs for 2768 steps with 12000 atoms

20.2% CPU use with 8 MPI tasks x no OpenMP threads

Minimization stats:
  Stopping criterion = force tolerance
  Energy initial, next-to-last, final = 
        -143465.217781     -143465.218172     -143465.218172
  Force two-norm initial, final = 0.157341 9.91293e-06
  Force max component initial, final = 0.0014585 3.06597e-07
  Final line search alpha, max atom move = 0 0
  Iterations, force evaluations = 2768 2768

MPI task timing breakdown:
Section |  min time  |  avg time  |  max time  |%varavg| %total
---------------------------------------------------------------
Pair    | 5976.4     | 6363.4     | 6606       | 237.7 | 85.95
Bond    | 0.40403    | 0.4796     | 0.59152    |   7.7 |  0.01
Neigh   | 0          | 0          | 0          |   0.0 |  0.00
Comm    | 791.14     | 1033.6     | 1420.6     | 589.6 | 13.96
Output  | 0.18335    | 0.18425    | 0.18713    |   0.3 |  0.00
Modify  | 0          | 0          | 0          |   0.0 |  0.00
Other   |            | 5.698      |            |       |  0.08

Nlocal:    1500 ave 1500 max 1500 min
Histogram: 8 0 0 0 0 0 0 0 0 0
Nghost:    24374 ave 24374 max 24374 min
Histogram: 8 0 0 0 0 0 0 0 0 0
Neighs:    2.17455e+06 ave 2.18527e+06 max 2.16639e+06 min
Histogram: 1 2 0 1 0 2 1 0 0 1

Total # of neighbors = 17396400
Ave neighs/atom = 1449.7
Ave special neighs/atom = 1
Neighbor list builds = 0
Dangerous builds = 0
reset_timestep 0
variable la equal lx
variable lb equal ly
variable lc equal lz
fix AVE_LAT all ave/time 1 30000 40000 v_la v_lb v_lc file ave_lat
fix AVE_ATOM all ave/atom 1 30000 40000 c_dr[1] c_dr[2] c_dr[3]
dump core_displ all custom 40000 displcoredump id type f_AVE_ATOM[1] f_AVE_ATOM[2] f_AVE_ATOM[3]
variable TEMP equal temp
fix AVE_T all ave/time 1 30000 40000 v_TEMP file ave_temp
velocity all create 5 146981634 dist gaussian mom yes rot no bias yes temp CSequ
Neighbor list info ...
  1 neighbor list requests
  update every 1 steps, delay 10 steps, check yes
  max neighbors/atom: 2000, page size: 100000
  master list distance cutoff = 16.5
  ghost atom cutoff = 16.5
  binsize = 8.25 -> bins = 5 5 6
timestep 0.0004
velocity all scale 5 temp CSequ
fix NPT all npt temp 5 5 0.100000 tri 1. 1. 0.100000
fix_modify NPT temp CSequ
run 10000
Memory usage per processor = 21.0002 Mbytes
Step TotEng PotEng KinEng Fnorm E_coul E_long E_bond Temp Press Pxx Pyy Pzz Lx Ly Lz 
       0   -143461.34   -143465.22     3.877158 9.9115462e-06   -156467.47            0    967.88682            5    419.19465     522.1471    517.25617    218.18067         40.1         40.1        48.12 
     100   -143461.47    -143463.6    2.1262672    8.2052784   -156507.54            0    992.93524    2.7420435   -3.2970038   -23.545202   -22.664692    38.073323     40.10779    40.106963    48.128309 
     200   -143461.37   -143463.09    1.7238306    8.4774858   -156478.53            0    977.47407    2.2230595   -1.3504634    26.857239    26.538216   -55.843685    40.101916    40.102206    48.132084 
     300   -143461.21    -143463.5    2.2937582    7.6808045   -156476.32            0    976.03574    2.9580407    8.8293061    14.499497    14.063852  -0.17570847    40.101345    40.101226    48.132876 
     400   -143461.04   -143462.88    1.8341171    8.6412564    -156496.7            0    986.02063    2.3652855    4.9595099    14.754258    15.731916   -13.437122    40.107277    40.106834    48.129835 
     500   -143460.86    -143463.2    2.3364641    8.1134288   -156470.26            0     974.1161    3.0131143   -9.9424413   -5.6766045   -5.5661041   -17.150682    40.105126    40.104357    48.120362 
     600   -143460.67   -143463.07    2.4086658     8.196268   -156500.89            0    988.72334    3.1062259    16.700588      20.1692    21.045666    11.130465    40.109939    40.110127    48.121956 
     700   -143460.46   -143462.94    2.4781811    8.6388409   -156475.24            0    975.33678    3.1958732   -14.918708   -11.557645   -11.890083    -19.28469     40.10746    40.105896    48.122744 
     800   -143460.25   -143462.84    2.5926902    8.7013035   -156477.51            0    977.98743    3.3435446    18.184572    17.048517    17.638592    21.698083    40.103085    40.102812    48.126587 
     900   -143460.02    -143462.5    2.4798426    9.2103167   -156504.49            0    989.93142    3.1980159   -12.786897   -11.947098   -12.125384   -12.048064    40.106241    40.106309    48.137208 
    1000   -143459.79   -143462.47     2.680258    9.2911824   -156461.16            0     969.7584    3.4564725    12.452801    10.968456    11.278174    16.995964    40.099295     40.09991    48.128961 
    1100   -143459.56   -143462.31    2.7538433    9.4514495   -156492.43            0    984.59215    3.5513684   -2.7386513   -3.0714329   -3.5248715   0.20851793    40.108444    40.107034    48.126578 
    1200   -143459.33   -143462.27    2.9442479    9.4290312   -156496.23            0     987.0591     3.796915   -1.0531351    -3.281741   -3.5358641    5.4306281    40.109991    40.109144    48.122178 
    1300   -143459.09   -143462.29    3.2047559    9.3884583   -156462.64            0    970.65318    4.1328672    7.3225988    4.8791139    5.1537071    13.731614    40.106644    40.104401    48.115968 
    1400   -143458.85   -143462.01    3.1589619    9.8454921   -156499.64            0    987.25116    4.0738112   -8.8227255   -11.230907   -11.725475    -1.351026    40.111345    40.110025    48.126749 
    1500   -143458.62   -143462.08    3.4606169    9.7391117   -156473.44            0    976.49094    4.4628267    11.321904      10.4966    10.595297    15.526313    40.100956     40.10183    48.129662 
    1600   -143458.39   -143461.91    3.5220615    10.020226   -156484.37            0    980.97723     4.542066   -14.095893   -15.662351   -16.515121   -7.2386774    40.101784    40.105283    48.133932 
    1700   -143458.17   -143461.71    3.5448625    10.112969   -156494.82            0    985.97836    4.5714702    11.275497    9.1551183    9.3247242    18.056035    40.104419    40.105659    48.134713 
    1800   -143457.96   -143461.42    3.4585187    10.612316   -156460.26            0     969.9713    4.4601209     -10.4576   -11.253926   -11.545162   -6.1888384    40.104824    40.103365    48.119981 
    1900   -143457.77   -143461.27    3.4905679    10.724863   -156508.03            0    992.80172    4.5014517    2.4728083    1.6297286    1.1650866    7.0471848    40.113362    40.110924    48.124084 
    2000   -143457.61   -143461.56    3.9591832    10.528674   -156470.58            0     974.3022      5.10578  -0.42094109   -1.1094739   -1.5290516    3.2555432    40.109056    40.105542    48.118727 
    2100   -143457.48   -143461.45     3.973334    10.513706   -156469.97            0    974.09116    5.1240289   -6.0247903   -7.4345583    -8.480628  0.046555217    40.106017    40.105075     48.12301 
    2200   -143457.37   -143461.44    4.0662807    10.647661   -156511.51            0    994.81949    5.2438934    9.0678853    8.5856033    9.5761837    11.990011    40.105715    40.107139    48.138163 
    2300   -143457.29   -143461.47    4.1727654     10.69747   -156458.41            0    969.01024    5.3812166   -16.181002   -17.674864   -18.497971   -9.1195161     40.09793    40.101851    48.129984 
    2400   -143457.28   -143461.38    4.1044556    10.618715   -156493.24            0    985.49543    5.2931239    19.763451    19.803312    20.644111    21.836299    40.105171    40.106334    48.132143 
    2500   -143457.31   -143461.23    3.9171492    10.837082   -156484.96            0    981.34564    5.0515728   -18.741737   -22.917686   -22.511288   -8.3042825    40.108709    40.109543    48.122696 
    2600   -143457.38   -143461.26    3.8772389    10.862767   -156470.02            0     975.3875    5.0001042    17.288711    14.838573    16.739124    22.621539    40.108169     40.10589    48.114707 
    2700   -143457.47   -143461.43    3.9580465    10.673672   -156501.02            0    988.46401     5.104314   -8.7171643   -14.549428   -10.716374    1.3453627    40.113057    40.110075    48.125586 
    2800   -143457.58   -143461.51    3.9300135    10.450723   -156465.37            0    972.64581    5.0681627    1.8713996    -1.017865    1.6277082    7.2972685      40.1044     40.10181    48.123651 
    2900   -143457.67   -143461.64    3.9709916    10.422525    -156494.2            0    986.53206    5.1210082    9.1299088   0.34011363    9.8936149    19.769505    40.102662    40.104089    48.136366 
    3000   -143457.74    -143461.6    3.8613147    10.435204   -156490.04            0    983.33566    4.9795684   -21.987863   -27.461359   -23.943275    -11.83226     40.10427    40.105251    48.136277 
    3100   -143457.78   -143461.58    3.7931032    10.539612   -156459.07            0    969.43591    4.8916025    26.854468    17.819148     33.20109    31.916262    40.101613    40.102461    48.122142 
    3200    -143457.8   -143461.55     3.748158    10.574054   -156505.68            0    990.76491     4.833641   -32.158204   -40.502875   -36.229634   -17.349637    40.112582    40.112563    48.126051 
    3300   -143457.78   -143461.44     3.660315      10.7118   -156477.11            0    978.98519    4.7203583    21.417791     15.59413    30.776446    20.188343    40.108283    40.106997    48.115293 
    3400   -143457.73   -143461.67    3.9364094    10.456956   -156472.06            0    974.55146    5.0764108   -18.370732   -27.383786   -22.687388   -2.6611798    40.107761    40.105131    48.123608 
    3500   -143457.67   -143461.55    3.8773589    10.491152   -156503.65            0    990.78598    5.0002591     7.149212      7.61082    17.097745  -0.69267754     40.10814    40.107118    48.131909 
    3600   -143457.59   -143461.48    3.8958448    10.619875   -156463.14            0    971.46545    5.0240985   -2.8300145   -8.3989348   -4.3514606    6.6785113    40.098586    40.099794    48.132564 
    3700   -143457.52   -143461.48    3.9609048    10.516334   -156495.39            0    985.93632    5.1080002   -5.1545031   -1.6780131    1.7713322    -12.84448    40.105647    40.106099    48.135624 
    3800   -143457.45   -143461.32    3.8691664     10.78226   -156478.08            0    978.40719    4.9896939    11.028946     7.831958    11.059675    16.820358     40.10565    40.106354    48.123893 
    3900    -143457.4   -143461.34    3.9362544    10.811232   -156474.11            0    976.70679    5.0762109   -15.913293   -10.612461    -9.895974   -24.753567    40.107215    40.107076    48.119982 
    4000   -143457.39   -143461.34    3.9575725    10.810615   -156508.01            0     993.0634    5.1037028    15.916653    16.761903    20.138919     13.44256    40.113168    40.111941     48.12174 
    4100    -143457.4   -143461.37    3.9715962    10.779359   -156454.25            0    966.30881    5.1217878   -16.846766   -12.032924    -12.24817   -23.723521    40.104949    40.102171    48.121484 
    4200   -143457.44   -143461.39    3.9555494    10.770139   -156495.86            0    987.07096    5.1010938    13.992426    17.034235    19.947313    7.3990935    40.105604    40.105116    48.133545 
    4300    -143457.5   -143461.36    3.8632968    10.817149   -156490.69            0    984.22504    4.9821244   -12.387283   -6.7817912   -7.2225934   -20.773669    40.103385    40.103106    48.138522 
    4400   -143457.57   -143461.45     3.878632    10.625007   -156460.62            0    970.10673    5.0019008    6.3001818    12.534371    13.471482   -4.6547753    40.099956    40.100712    48.128657 
    4500   -143457.64   -143461.55    3.9028649     10.44523   -156505.43            0    991.13261    5.0331517  -0.20001955    5.4067354    4.9123637   -8.2062096    40.110972    40.110814    48.126895 
    4600    -143457.7    -143461.5    3.7958056    10.536653   -156472.07            0    975.89058    4.8950876   -6.2805824   0.77746302    1.4760825   -18.377027    40.106912    40.107223    48.117668 
    4700   -143457.74   -143461.53    3.7844928    10.569397   -156482.88            0    980.70849    4.8804985    11.313535    16.213319     16.32305    3.8547521     40.11005     40.10764    48.118895 
    4800   -143457.75   -143461.61    3.8601441    10.445074   -156490.24            0    983.09441    4.9780588   -12.538186   -3.5694146   -4.2111849   -27.417288    40.108195    40.106835    48.130283 
    4900   -143457.74   -143461.51    3.7716499    10.602471   -156466.17            0    973.50233    4.8639362     16.92673    22.218097    22.221812    8.7901156    40.098997    40.098326      48.1324 
    5000   -143457.71   -143461.55    3.8412953    10.512347   -156504.32            0    990.59824    4.9537513   -15.021986   -7.1623479    -8.809871   -26.752149    40.105324    40.105749    48.139908 
    5100   -143457.65   -143461.61    3.9582833    10.413937   -156473.07            0    976.13279    5.1046194    14.963081    19.566503    19.632466    8.3518291    40.102417     40.10261    48.128628 
    5200   -143457.58    -143461.5     3.914587    10.611783   -156474.07            0    976.31588    5.0482686    -7.718542    0.2468772   -2.5183916   -18.221223    40.107673     40.10854    48.118027 
    5300   -143457.52   -143461.44    3.9185746    10.688433   -156507.31            0    992.33342    5.0534109    2.3836527    5.9445526    5.6626132   -1.8447636    40.112711    40.113223    48.122061 
    5400   -143457.46   -143461.42    3.9537855    10.577511   -156457.41            0    968.65044    5.0988191    5.2671095    9.6731688    5.2420898    3.5549464    40.105626    40.104726    48.115345 
    5500   -143457.43   -143461.31    3.8797343    10.895596   -156492.85            0     984.7661    5.0033224   -10.781849   -8.2482193     -8.99259   -12.774939    40.106638    40.106454    48.133231 
    5600   -143457.42   -143461.42    3.9984929    10.727384   -156491.62            0    985.77065     5.156474    17.980761    20.228171    13.931371    22.142574    40.101293    40.101188    48.138821 
    5700   -143457.44   -143461.44     4.000019    10.762144   -156465.35            0    972.12608     5.158442   -23.691518   -20.513167   -24.473164   -23.548285    40.100616    40.100681    48.132604 
    5800   -143457.48   -143461.43    3.9519426    10.742238   -156503.35            0    990.21689    5.0964424    27.365201    23.993464    15.845481    44.421123    40.108572    40.108107    48.130617 
    5900   -143457.54   -143461.47    3.9342309    10.559124   -156462.53            0    970.60543    5.0736014   -23.713714   -20.611128   -27.354328   -20.885481    40.107248     40.10862    48.114231 
    6000   -143457.59   -143461.46     3.863257      10.7075   -156492.73            0    985.74751    4.9820732    20.137404    11.314743    1.9050017    49.944639    40.111421    40.110939    48.116947 
    6100   -143457.64   -143461.61    3.9647999    10.494788   -156490.28            0    983.78712    5.1130233   -5.0383131   -2.5140928    -12.95944    2.9134536    40.109583    40.109122    48.123529 
    6200   -143457.69   -143461.55    3.8653006    10.469304   -156460.55            0    970.03159    4.9847086   -2.0740413    -13.74785   -23.931267    33.950767      40.1011    40.100609    48.127713 
    6300   -143457.71   -143461.51    3.7937179    10.614228   -156510.89            0    994.35074    4.8923952     19.52803    19.882078    7.0523519    34.070277    40.103901       40.105     48.14223 
    6400   -143457.72   -143461.54    3.8257856    10.572906   -156467.99            0    973.01603    4.9337499   -24.752283   -35.549287   -42.417423    6.0573225    40.103099    40.102548    48.129539 
    6500    -143457.7   -143461.56    3.8638204    10.512414   -156475.33            0    977.05069    4.9827997    30.485351    27.742746    17.258533    48.815577    40.105896     40.10646    48.120676 
    6600   -143457.67    -143461.5    3.8292175    10.670942   -156502.34            0    989.35386    4.9381756   -25.881672   -33.855402   -37.742741   -3.7275869    40.114522    40.114038    48.119527 
    6700   -143457.63   -143461.46    3.8341814    10.571608   -156465.11            0    973.17323    4.9445772    19.227982    13.343281    7.4295859    39.516764    40.107225    40.105542    48.112829 
    6800   -143457.58   -143461.44    3.8637196    10.646997   -156494.92            0    985.71875    4.9826697   -11.526606   -15.636317   -17.006354   0.83939572    40.108439     40.10735    48.130844 
    6900   -143457.53   -143461.45    3.9280429    10.570668   -156480.77            0     979.7171    5.0656213     3.932358  -0.79018062   -4.9350564    20.175086    40.101417    40.103212    48.134098 
    7000   -143457.49   -143461.35    3.8649594    10.697942   -156472.77            0     976.1945    4.9842686    3.7180033    2.0406797   0.37789583    11.126103    40.098717    40.100137    48.136379 
    7100   -143457.46   -143461.24     3.787031    10.966772   -156502.37            0    989.39763    4.8837718   -9.8586522   -15.160297   -17.171229    5.2460092     40.10944    40.109361    48.130878 
    7200   -143457.44   -143461.43    3.9902683    10.585444   -156461.07            0    970.67953    5.1458675    16.868468    16.924297    15.466967    20.797109    40.106012     40.10525    48.114624 
    7300   -143457.46   -143461.44    3.9752617      10.6183    -156495.2            0    986.45782    5.1265149   -17.485899   -20.454832   -21.440295   -7.8586926    40.114563    40.111407    48.117319 
    7400   -143457.49   -143461.43    3.9365739    10.689896   -156493.35            0    986.22977     5.076623    18.243517     19.78202    18.010524    19.371624    40.110961    40.108468    48.120406 
    7500   -143457.54   -143461.55    4.0135931    10.491243   -156456.94            0     967.6288    5.1759473   -13.253513   -15.795719   -15.423644   -5.8476802    40.101001    40.100372    48.129033 
    7600   -143457.59   -143461.42    3.8342489    10.691268   -156507.35            0    992.30544    4.9446642    10.890876    14.020676    12.259551    9.1190396    40.103246    40.106175    48.141617 
    7700   -143457.64   -143461.43    3.7958471    10.654798   -156471.18            0    975.28175    4.8951411   -3.4796587   -5.0548082   -3.2345612    0.3034643    40.100063    40.100337    48.134313 
    7800   -143457.68   -143461.52    3.8454871     10.46718   -156480.54            0     979.4759     4.959157   -1.9852453    1.1493115  -0.66324717   -3.7915476    40.107017     40.10651    48.123763 
    7900    -143457.7   -143461.49    3.7850421    10.569516   -156497.93            0    987.82834    4.8812069    14.210101    14.707618     17.87396    12.261516    40.112847    40.110686    48.119537 
    8000    -143457.7   -143461.55    3.8478807    10.508215   -156462.88            0    971.13533    4.9622439   -11.095412   -6.3625728   -8.2522044   -16.434732    40.107984    40.105737    48.114963 
    8100   -143457.69   -143461.59    3.9032192    10.559162    -156502.8            0    990.36396    5.0336085    17.832775    27.372611    32.136917   -3.4305713    40.110189    40.108367    48.126922 
    8200   -143457.66    -143461.5    3.8348038    10.655585   -156469.74            0    973.28122    4.9453798   -9.3051937   -6.9852988   -5.9803797   -12.419287    40.100617    40.102461    48.134551 
    8300   -143457.62   -143461.45    3.8373818    10.693653   -156478.76            0    979.60963    4.9487044    14.796405    27.919081    30.214258   -11.046046    40.099136    40.100668    48.135734 
    8400   -143457.57   -143461.45    3.8790599    10.678514   -156505.61            0    991.13233    5.0024527   -11.701978   -12.310742   -7.0243912   -13.082811    40.107569    40.107414    48.136197 
    8500   -143457.52   -143461.45    3.9252605    10.637152   -156458.09            0    969.14057    5.0620331    9.1006879    20.998368    22.806831   -14.016137    40.104384     40.10298    48.118493 
    8600   -143457.49   -143461.42    3.9336129     10.66837   -156494.83            0    985.93552    5.0728044   -4.7940173   -4.3277002    1.4427588   -8.7276609     40.11346    40.111865    48.118341 
    8700   -143457.47   -143461.41    3.9388366    10.725458   -156487.56            0    982.81964     5.079541   -4.0403018    5.9330032    6.9962259   -22.512273    40.110383    40.108017    48.121942 
    8800   -143457.46   -143461.45    3.9916979    10.612228   -156464.82            0    972.36924    5.1477111    7.2766082    8.6187199    14.646605    0.9714609    40.103555    40.102873    48.123036 
    8900   -143457.48   -143461.41    3.9295636    10.724764   -156502.43            0    989.17762    5.0675824   -13.122458   -3.9007359    -2.995154   -30.085999      40.1037    40.105906    48.142653 
    9000    -143457.5   -143461.41    3.9066542      10.6851   -156470.65            0    975.84115    5.0380384    15.196716    19.075979    23.196034    5.5693545     40.09875    40.099382    48.133447 
    9100   -143457.54   -143461.49    3.9403793    10.622094   -156487.14            0    982.33831    5.0815305   -16.774499   -8.9979496   -8.7269406   -29.941153    40.106522    40.106403    48.129587 
    9200    -143457.6   -143461.38    3.7763209    10.696674   -156491.03            0    984.39974      4.86996    15.637837    21.610228    25.035666    2.9084142    40.110094    40.109003    48.121972 
    9300   -143457.64   -143461.44    3.8004929    10.647292   -156461.03            0    970.12875    4.9011322   -9.7399281   -3.4351763   -2.2622859   -21.204472    40.108232    40.106966    48.112761 
    9400   -143457.67   -143461.53    3.8583719    10.609021   -156508.25            0    992.88689    4.9757733    5.7848605    14.160375    15.377386   -9.7385476    40.112271    40.109276    48.127054 
    9500   -143457.69   -143461.49    3.7993234    10.557918   -156470.51            0    974.94918    4.8996241    3.0381988    7.9861066    8.3152562   -4.7121034    40.102694    40.102484    48.127778 
    9600   -143457.69   -143461.56    3.8677815     10.48996   -156476.97            0    977.60436    4.9879079   -4.5652418    3.1972324    2.9767963   -17.456317    40.100117    40.100806    48.137785 
    9700   -143457.67   -143461.56     3.891084     10.51123   -156505.44            0    991.63859    5.0179589    11.166322     16.04554    16.583294     3.295383    40.104431    40.105928    48.138503 
    9800   -143457.65   -143461.45    3.8026951    10.619172   -156458.28            0     968.6984    4.9039723   -11.696555   -3.8495056   -4.8820551   -23.797539    40.103535    40.103701    48.121335 
    9900    -143457.6   -143461.44    3.8396382    10.639576   -156496.73            0    987.03914    4.9516143    13.957866    17.421616    16.986548      9.89745    40.110933    40.111345    48.121215 
   10000   -143457.56   -143461.44    3.8772758    10.678556   -156481.88            0    980.09648    5.0001518   -11.685252   -6.2189305   -7.3024391   -19.059219    40.111385    40.109034    48.117013 
Loop time of 23647.5 on 8 procs for 10000 steps with 12000 atoms

Performance: 0.015 ns/day, 1642.185 hours/ns, 0.423 timesteps/s
20.2% CPU use with 8 MPI tasks x no OpenMP threads

MPI task timing breakdown:
Section |  min time  |  avg time  |  max time  |%varavg| %total
---------------------------------------------------------------
Pair    | 19744      | 20316      | 20790      | 245.9 | 85.91
Bond    | 1.6012     | 1.6721     | 1.7817     |   4.2 |  0.01
Neigh   | 0          | 0          | 0          |   0.0 |  0.00
Comm    | 2823.3     | 3297       | 3868.4     | 610.3 | 13.94
Output  | 0.59065    | 0.59483    | 0.6011     |   0.4 |  0.00
Modify  | 26.048     | 26.149     | 26.222     |   1.1 |  0.11
Other   |            | 6.346      |            |       |  0.03

Nlocal:    1500 ave 1500 max 1500 min
Histogram: 8 0 0 0 0 0 0 0 0 0
Nghost:    24374 ave 24374 max 24374 min
Histogram: 8 0 0 0 0 0 0 0 0 0
Neighs:    2.17455e+06 ave 2.18384e+06 max 2.16808e+06 min
Histogram: 2 0 1 1 1 1 1 0 0 1

Total # of neighbors = 17396400
Ave neighs/atom = 1449.7
Ave special neighs/atom = 1
Neighbor list builds = 0
Dangerous builds = 0
unfix NPT
fix NPT all npt temp 5 5 0.100000 tri 1. 1. 0.100000
fix_modify NPT temp CSequ
run 30000
Memory usage per processor = 21.0002 Mbytes
Step TotEng PotEng KinEng Fnorm E_coul E_long E_bond Temp Press Pxx Pyy Pzz Lx Ly Lz 
   10000   -143457.56   -143461.44    3.8772758    10.678556   -156481.88            0    980.09648    5.0001518   -11.685252   -6.1903234   -7.2472075    -19.11689    40.111385    40.109034    48.117013 
   10100   -143457.57   -143461.37    3.8024588    10.674003   -156474.29            0    977.18004    4.9036675    15.729239    20.419386    19.874719    9.3500202    40.105405    40.104232     48.12266 
   10200   -143457.57   -143461.43    3.8621234    10.600232   -156501.14            0    988.89453    4.9806113   -22.466061   -20.062088   -21.295217   -23.605331    40.105787    40.106784    48.137755 
   10300   -143457.57   -143461.49    3.9170804    10.523886   -156461.19            0    970.02638     5.051484    19.002461    24.100351    22.667237    12.809159    40.097503    40.099872    48.133247 
   10400   -143457.58    -143461.5    3.9228522    10.543563   -156494.01            0    986.16179    5.0589274   -26.111503   -29.293742   -29.459981   -16.939506    40.105129    40.104907     48.13531 
   10500    -143457.6   -143461.47    3.8639502    10.617648   -156487.73            0    982.23719    4.9829671    3.8975457    11.017456    10.406678   -7.2494071    40.109661    40.108681    48.123456 
   10600   -143457.63   -143461.42    3.7836123    10.699556   -156462.38            0    971.16761     4.879363    11.766949    1.0718177    1.0831062    35.409506    40.106704    40.105423    48.114757 
   10700   -143457.66   -143461.49     3.828137    10.628729   -156506.45            0    991.72661    4.9367823   -63.874844   -55.064212   -55.971459   -78.122429    40.115045    40.113089    48.122829 
   10800   -143457.69   -143461.41    3.7198019    10.696601   -156472.24            0    975.49315    4.7970729     77.55722    63.158124    62.085369    110.01114    40.103418    40.104495    48.122472 
   10900   -143457.69   -143461.56    3.8696052     10.52902   -156474.62            0    976.57812    4.9902598    -93.10839   -88.762135   -87.365581   -100.57519    40.101642    40.103796    48.135369 
   11000   -143457.68   -143461.52    3.8374395    10.510601   -156500.17            0    988.17641    4.9487788    68.556031     56.58898     54.00375    97.649579    40.103655    40.105152    48.137685 
   11100   -143457.65   -143461.41    3.7603456    10.626142   -156463.75            0    972.27178    4.8493581   -31.619708   -31.494333   -29.327288   -31.597889    40.102742    40.100575    48.127007 
   11200    -143457.6    -143461.5    3.9004421    10.565957   -156499.93            0     988.6337    5.0300272   -9.4030429   -17.388684   -21.545327    13.334145    40.112527    40.111075    48.122169 
   11300   -143457.56   -143461.43    3.8663663    10.574736   -156477.12            0    977.83853    4.9860829    57.843193     51.59308    54.651079    69.802757    40.109016    40.107069    48.116228 
   11400   -143457.55    -143461.4    3.8554791    10.763536   -156474.69            0     977.2669    4.9720427   -62.802838   -63.546841   -66.956351   -55.411617    40.108346    40.108406    48.118728 
   11500   -143457.54   -143461.44    3.8924118    10.712079   -156505.35            0    991.09584    5.0196713    68.482739    58.961133    60.441849    88.596891    40.107135    40.108584    48.130794 
   11600   -143457.55   -143461.38    3.8272378    10.646329   -156456.04            0    967.84503    4.9356226   -35.587603   -33.728648   -36.365725     -34.0663    40.097048     40.10023     48.13296 
   11700   -143457.56   -143461.38    3.8230059    10.768988   -156499.14            0    988.76021    4.9301652    24.719457    16.372276    17.483231    42.759699     40.10484    40.103728    48.136742 
   11800   -143457.57   -143461.44    3.8645163    10.653477   -156488.73            0    983.58769    4.9836972  -0.28662502    2.7680629    2.1682303   -3.3043759    40.106773    40.105125    48.129367 
   11900   -143457.59   -143461.44    3.8487696    10.589137   -156463.57            0    971.65609    4.9633902   -6.4341167   -11.714283   -12.123303    7.1609367    40.107719    40.105477    48.115275 
   12000   -143457.61   -143461.51    3.9007913    10.571046   -156504.24            0    990.22371    5.0304775    18.570001      21.5618    22.219956     14.61658    40.114322    40.112837    48.120024 
   12100   -143457.64   -143461.51    3.8697987     10.50486   -156467.75            0    973.63874    4.9905094   -21.928962   -24.671028   -25.796578   -12.681634    40.106067    40.105879    48.119628 
   12200   -143457.66   -143461.51    3.8480933    10.548285   -156486.89            0    982.57749     4.962518    20.185757     23.89578    26.141198    13.180918    40.103648    40.105375    48.131031 
   12300   -143457.67    -143461.5    3.8297645    10.625706   -156491.03            0    984.00416     4.938881   -18.582228   -18.194077    -20.92319   -14.320042    40.101963    40.102956    48.141743 
   12400    -143457.7   -143461.54    3.8410728    10.490513   -156465.98            0    973.28934    4.9534643    2.7836007    5.0715901    8.2989019   -2.7135084    40.101532    40.099279    48.129206 
   12500   -143457.71   -143461.58    3.8711723    10.496689   -156502.87            0    989.25041    4.9922807    13.012114    14.200333    12.138456    15.165482    40.110369     40.10905    48.129681 
   12600    -143457.7   -143461.47    3.7696224    10.634186   -156468.67            0    974.23205    4.8613215   -61.396765   -61.640151     -55.9798   -64.071107    40.109288    40.107657     48.11561 
   12700   -143457.67   -143461.54    3.8789654    10.497903   -156477.68            0    977.13253    5.0023308    63.058305     71.96529    69.674736    50.150942    40.109918    40.108852    48.115629 
   12800   -143457.62   -143461.43    3.8093155    10.535388    -156503.5            0    990.91129      4.91251   -72.177624   -78.780961   -74.074456   -61.213623    40.110681    40.109621    48.129496 
   12900   -143457.58   -143461.35    3.7691827    10.681944   -156460.92            0    970.30426    4.8607545     24.23433    36.699235    37.176611     1.112899    40.098363    40.100508    48.129959 
   13000   -143457.55   -143461.48    3.9223014    10.644463   -156495.17            0    985.63013    5.0582171    10.862858    2.0348438    3.2724147    29.754919    40.102122    40.102872    48.143377 
   13100   -143457.54   -143461.43    3.8857584    10.754551   -156484.05            0    982.22211    5.0110911   -56.219725   -42.484797    -38.60758   -85.055968    40.103361    40.103932    48.132851 
   13200   -143457.53   -143461.41    3.8733902    10.762749   -156468.91            0    972.96892    4.9951409    71.609574    63.709238    61.088654    92.574723    40.105759    40.105228    48.120399 
   13300   -143457.54   -143461.41     3.865267     10.67081   -156501.46            0    990.08688    4.9846653   -52.968395   -43.366746   -36.605229   -76.659253    40.113934    40.112677     48.11961 
   13400   -143457.56   -143461.39    3.8321233     10.62309   -156466.59            0     972.7362     4.941923    34.671014     30.44709    28.209375    47.563944    40.109364    40.106034    48.113331 
   13500   -143457.57   -143461.47    3.8994027    10.678851   -156494.58            0    986.78366    5.0286868    1.9400924    7.4300643    12.767567   -12.180366    40.106515    40.106491    48.129549 
   13600    -143457.6   -143461.47    3.8734433    10.633057   -156487.72            0    982.84538    4.9952095   -6.2787368   -6.3163395   -9.5462622  -0.58352972    40.102389    40.103509    48.137116 
   13700   -143457.63   -143461.43    3.7996276    10.623426   -156462.55            0    970.72692    4.9000164    21.732919    23.285619    27.849547    16.602736    40.097819    40.098627    48.134844 
   13800   -143457.66   -143461.48    3.8252869    10.675097   -156507.03            0    992.48253    4.9331067     -12.0639   -9.8172145   -11.181509   -12.740454    40.107987    40.107644    48.134009 
   13900   -143457.68   -143461.54    3.8567513     10.51745   -156469.28            0    973.93291    4.9736833    13.633991     14.41868    17.108924    11.764481    40.107347      40.1066    48.117332 
   14000   -143457.69   -143461.54     3.844458    10.477466   -156480.18            0     979.7392    4.9578299   0.12706598    5.1699289    4.1746257   -6.6135274    40.110452    40.108118    48.116124 
   14100   -143457.68   -143461.48    3.8062397     10.66806   -156500.44            0    988.68824    4.9085434   -6.7725927    -8.588434   -7.2344697   -2.0343213    40.114041    40.111117    48.121021 
   14200   -143457.62   -143461.57    3.9514306    10.477187   -156463.76            0    971.90386    5.0957822    18.561754    26.447191    26.595996    5.2022121    40.100425    40.100781    48.127746 
   14300   -143457.56   -143461.46    3.8981008    10.610313   -156494.81            0    985.82265    5.0270079   -32.384958   -33.601809   -35.395949   -25.447305    40.103373    40.104553    48.140803 
   14400   -143457.54   -143461.39    3.8574265    10.718575    -156479.4            0    978.44705    4.9745541    50.714987    62.718464    64.687067    27.412691    40.100607    40.101804     48.13568 
   14500   -143457.52   -143461.47    3.9413403    10.568186   -156474.28            0    977.69832    5.0827698   -94.600881   -100.03633   -108.57861   -72.789321    40.105298    40.105359    48.125411 
   14600   -143457.52    -143461.4    3.8794846    10.694536    -156502.2            0    988.71703    5.0030003    51.023994    66.362819    73.868075    15.163111    40.113574    40.112313    48.120624 
   14700   -143457.53   -143461.41    3.8787487    10.606349   -156461.28            0    970.65368    5.0020514   -10.670351   -13.719096   -25.227071     9.174104    40.108923    40.105099    48.113176 
   14800   -143457.55   -143461.41    3.8604155     10.75321   -156491.99            0    984.79142    4.9784087   -74.267292   -65.790006    -59.91089   -94.707826    40.112012    40.109508    48.124352 
   14900   -143457.58   -143461.41    3.8304976    10.716095   -156489.93            0    983.30403    4.9398265    96.244136     98.00035    86.574627    106.64321    40.103218    40.102911    48.134454 
   15000   -143457.61    -143461.5    3.8881164    10.593432   -156459.39            0    969.84724     5.014132   -111.88605   -110.08981    -105.6821    -117.2442    40.098291    40.099582    48.136356 
   15100   -143457.63   -143461.44    3.8123899    10.676011   -156508.63            0    992.36966    4.9164747    75.596719    81.313381    73.036004    75.124065     40.10501    40.106583     48.13787 
   15200   -143457.64   -143461.44     3.799198    10.674477   -156469.77            0    975.01382    4.8994624   -40.406658   -41.312747   -41.423221   -36.006329    40.103519    40.106211    48.123063 
   15300   -143457.64    -143461.5    3.8550016    10.484183   -156481.53            0    979.74342     4.971427    3.6159595    9.8252098    5.2736449   -2.0306858    40.111026    40.110513    48.115087 
   15400   -143457.64   -143461.47     3.831796    10.618612   -156495.22            0    986.06571    4.9415009     29.19028    22.433032    20.564892    46.949407     40.11351    40.110998    48.117773 
   15500   -143457.61   -143461.48    3.8716068    10.576307    -156463.3            0     971.7517    4.9928411   -38.133877   -31.966673   -34.216404   -45.771324     40.10585     40.10294    48.121386 
   15600   -143457.55   -143461.49     3.938682    10.638328   -156504.03            0    990.66721    5.0793415    49.289817    42.484726    37.749972    70.376183    40.105039    40.104098     48.13832 
   15700   -143457.51   -143461.46    3.9522358    10.613653   -156472.13            0    975.58158    5.0968206   -33.404607   -30.547118    -30.17993   -36.779746    40.099586    40.099529    48.138425 
   15800    -143457.5   -143461.37    3.8695234    10.721611   -156479.73            0     979.6385    4.9901543    28.553954    20.812445    16.390691    50.994271    40.102635    40.104535    48.128177 
   15900   -143457.49   -143461.33    3.8354793    10.846424   -156501.87            0    989.41926    4.9462509    -4.277483   -4.5573291   -1.4535251   -4.3397374     40.10904    40.112676    48.125961 
   16000    -143457.5    -143461.5    3.9962495    10.573796    -156458.7            0    969.27944    5.1535808   -2.0192282   -7.1381051   -12.266001    16.005186    40.107872    40.108551    48.108868 
   16100   -143457.53   -143461.46    3.9256373    10.547409   -156496.39            0    986.81074     5.062519    14.277594    10.143672    12.948248    22.402706    40.112528    40.110966    48.119888 
   16200   -143457.56   -143461.45    3.8958944    10.604075   -156486.97            0    982.90548    5.0241625   -14.123416   -17.675256   -20.392732   -1.7572966    40.107542     40.10439      48.1287 
   16300   -143457.58   -143461.58    3.9950632    10.384633   -156468.91            0    974.26973     5.152051    14.376569    9.8908275    12.221781    23.359178    40.100237    40.097968     48.13443 
   16400    -143457.6   -143461.44    3.8348832     10.66372   -156501.03            0    988.66694    4.9454822   -11.987431   -13.778185   -14.460758    -5.413508    40.104942    40.102819    48.143526 
   16500    -143457.6   -143461.41    3.8013931    10.729327   -156467.78            0    973.76642    4.9022932    6.9165009    2.8543696    4.0440523    16.380859    40.102023    40.104226    48.124804 
   16600    -143457.6   -143461.49    3.8847747    10.626352   -156487.78            0    982.61176    5.0098225   -5.8937324   -6.5251173   -5.6767278    -2.979357    40.108112    40.111173    48.121768 
   16700    -143457.6   -143461.44    3.8329431    10.553535   -156489.91            0    983.91493    4.9429803   -2.3448303   -6.0333883   -4.7455418    6.1675368    40.111825    40.112929    48.115311 
   16800    -143457.6   -143461.49    3.8875459    10.604434   -156465.15            0     972.3074    5.0133962    2.3106908    4.0193234    6.3796306   -1.0838047    40.107087    40.105136    48.117037 
   16900   -143457.59   -143461.47    3.8770156    10.564967   -156506.05            0    991.72371    4.9998163   -12.652431   -15.011677   -15.751337   -4.7976023    40.108119    40.106789    48.135374 
   17000   -143457.59   -143461.55    3.9657211    10.495637   -156468.27            0    973.44643    5.1142113    7.7041572    10.160648    15.999918  -0.44842973    40.100939    40.098305    48.134818 
   17100   -143457.58   -143461.52    3.9378319    10.579189   -156477.27            0    977.46625    5.0782452    -6.094023   -8.3239104   -10.243923    2.7994475    40.101894    40.101652    48.135769 
   17200   -143457.58   -143461.44    3.8632439    10.660416   -156501.84            0    989.94334    4.9820563   -13.528261   -9.3049206  -0.17308518   -28.439449    40.108355    40.109768    48.128852 
   17300   -143457.56   -143461.48    3.9249994    10.612251   -156462.04            0    970.44352    5.0616964    26.454112    27.232313    22.579407    32.088353    40.106335     40.10703     48.11403 
   17400   -143457.52   -143461.41    3.8926025    10.630383   -156497.94            0    988.38133    5.0199172   -37.978347   -36.178162   -25.530572   -49.820838     40.11381    40.111533    48.118623 
   17500   -143457.47   -143461.34    3.8705487    10.756693   -156481.52            0    979.48468    4.9914766    42.307124    47.919175    43.741836     37.79819    40.108464    40.106488     48.12219 
   17600   -143457.44   -143461.38    3.9463139    10.674452   -156473.24            0    976.69394    5.0891837   -16.312704   -16.402942   -7.1163636   -22.724697    40.100046    40.100287    48.134972 
   17700   -143457.43   -143461.36    3.9354942    10.753471   -156499.32            0    988.18132    5.0752305   -8.7073581     1.229626   0.14560933   -24.920254    40.104141    40.103459    48.141899 
   17800   -143457.44   -143461.42    3.9797374    10.630914   -156464.94            0    971.84898    5.1322868    75.477394     73.20662    76.344305    79.469504    40.098559    40.100502    48.130286 
   17900   -143457.48   -143461.41    3.9245057    10.737961   -156495.37            0    988.19721    5.0610598   -96.905139   -83.891141    -76.71033   -127.48504    40.109189    40.110262    48.124376 
   18000   -143457.52   -143461.38    3.8546935    10.840762   -156489.64            0    982.62741    4.9710297    130.45252    124.99509    121.55519    147.33458    40.111684       40.111    48.114498 
   18100   -143457.55   -143461.48    3.9353366    10.664469   -156462.99            0    972.51976    5.0750273   -80.987287   -64.796094    -52.72503   -122.88108     40.10806    40.105121    48.115366 
   18200   -143457.57   -143461.52    3.9440885    10.520446   -156505.73            0    990.60851    5.0863137     35.78358    29.602789    19.843953    60.463558    40.110089    40.109251    48.130331 
   18300   -143457.59   -143461.45    3.8556276    10.626175   -156470.48            0    975.03978    4.9722342    35.200598    46.150379    61.147154    0.6824424    40.097825    40.097792    48.137462 
   18400   -143457.59    -143461.5    3.9028478    10.555428   -156480.17            0    979.50663    5.0331296   -52.912828   -53.698898   -63.359751   -39.322564     40.10094    40.102344    48.137981 
   18500    -143457.6   -143461.52    3.9220718    10.584052   -156499.05            0    987.98067     5.057921    47.818185    53.344013     61.94901     30.55388    40.105209     40.10638    48.133898 
   18600   -143457.61   -143461.47    3.8598609    10.667789   -156463.56            0    972.11363    4.9776935   -38.676415   -37.787863   -44.392417   -31.215817    40.105853    40.106555    48.116451 
   18700    -143457.6   -143461.49    3.8825582    10.581852   -156498.67            0    987.35655     5.006964    16.870551    17.886669     23.54282    11.750425    40.115975     40.11216    48.116775 
   18800   -143457.59   -143461.51     3.921408    10.516817    -156473.9            0    976.29261    5.0570649   -4.8798191   -1.7370623    -5.724625   -4.6646074    40.108736    40.106735    48.118449 
   18900   -143457.57   -143461.38    3.8107759    10.657004   -156476.68            0    977.68583    4.9143932   -20.195484   -21.210795   -19.728659   -16.994191    40.104187    40.104228    48.129084 
   19000   -143457.54   -143461.45    3.9014891    10.600862   -156503.82            0    990.52455    5.0313774    27.707139    32.861604    30.094548    22.727976    40.102089    40.104434    48.142669 
   19100   -143457.51   -143461.46    3.9482936    10.755078   -156458.29            0    969.10192    5.0917367   -48.056757   -49.784532   -51.579588   -40.326375    40.098195    40.100326    48.132528 
   19200   -143457.49   -143461.36    3.8603972    10.816719   -156498.33            0    987.63768    4.9783852    50.716243    57.272959    60.109732    37.269648    40.106854    40.108116    48.129658 
   19300   -143457.48   -143461.44    3.9677487    10.670002   -156483.76            0    981.25863     5.116826   -57.759011   -59.906597   -69.709697   -41.154125    40.110481    40.109387     48.12023 
   19400   -143457.47   -143461.46    3.9844847    10.646112   -156464.87            0    971.84459    5.1384089    24.783293    35.105181     43.31212   -1.3329425    40.111193    40.106035    48.110795 
   19500    -143457.5    -143461.3    3.8002415    10.788958   -156505.99            0    991.26104    4.9008081    40.942202    35.445139    15.934652    73.942729     40.11154    40.110183    48.126086 
   19600   -143457.54   -143461.39    3.8519164    10.652118   -156466.84            0    974.22549    4.9674483   -103.68851    -93.63801   -81.245555   -133.85412    40.101587     40.10204    48.130542 
   19700    -143457.6   -143461.47    3.8746033     10.59056   -156491.08            0     983.7254    4.9967054    153.44062    152.39093    127.33519    183.10972    40.099243    40.101941    48.138329 
   19800   -143457.62   -143461.48    3.8647138    10.564905    -156487.3            0    983.32192    4.9839518   -135.02568   -128.52739   -116.19362   -157.97755    40.103856    40.105187    48.137711 
   19900   -143457.62   -143461.48    3.8525659    10.668094   -156467.38            0    973.10626    4.9682858     107.4723    108.16843    87.214323    129.55014    40.103359      40.1041    48.119292 
   20000   -143457.62   -143461.51    3.8848893     10.70683   -156503.59            0    990.42045    5.0099702   -23.915021   -24.105911    -17.25357    -27.91084    40.114876    40.111482    48.121322 
   20100   -143457.62   -143461.48    3.8673108    10.579302   -156470.61            0    975.45324    4.9873009   -21.135756   -16.156721    -29.86407   -14.707959    40.110732    40.107775    48.111805 
   20200   -143457.61   -143461.41    3.8013918    10.666312   -156481.93            0    979.89043    4.9022915    66.159319    59.855788    58.822291    82.424542    40.105805    40.105482     48.12466 
   20300   -143457.59    -143461.5    3.9108098    10.586885   -156500.93            0    989.68916    5.0433975   -56.471695   -52.260506   -56.710445   -58.124278     40.10458    40.107282    48.137501 
   20400   -143457.56   -143461.53    3.9643439    10.546028   -156459.98            0    969.58924    5.1124353    45.188723    39.698981    35.430468    62.963257    40.097411    40.098444    48.132571 
   20500   -143457.55   -143461.37     3.811187    10.738593   -156496.44            0    986.73678    4.9149234    -26.12956   -24.355161   -22.123539   -29.432078    40.105757    40.106794    48.135515 
   20600   -143457.53   -143461.45    3.9141618    10.560428   -156483.68            0    981.35321    5.0477202    11.453294    5.7066844  -0.79939815    32.109853    40.109401     40.10675    48.120642 
   20700    -143457.5   -143461.45    3.9466714    10.592587   -156470.82            0    974.88616    5.0896448 -0.015309296  -0.64113509    4.4289112   -1.1151076    40.110588    40.106408    48.114738 
   20800   -143457.47   -143461.42    3.9504143    10.694856   -156502.57            0    990.07278    5.0944716   -17.153313   -24.043875   -30.155163    5.1215721    40.114045    40.112054    48.120513 
   20900   -143457.45   -143461.41    3.9596856    10.716587   -156463.78            0    971.25284    5.1064279    21.337343    19.144187    26.126761    21.214862    40.101349    40.103524    48.125676 
   21000   -143457.43   -143461.34    3.9061977    10.862338   -156491.85            0    985.08449    5.0374496   -32.031696   -37.213201   -44.898045   -11.310519    40.101558    40.104882    48.139336 
   21100   -143457.43   -143461.41    3.9799804    10.689394   -156486.71            0    981.96968    5.1326002    18.821168    14.495199    23.097766    21.557499    40.103187    40.103104    48.136172 
   21200   -143457.46   -143461.44    3.9829916    10.566765   -156464.11            0    971.78107    5.1364834   -11.921591   -16.742491   -21.997335    5.6992256    40.103089    40.102029    48.126041 
   21300   -143457.51   -143461.39    3.8838394    10.765459   -156507.88            0    992.88082    5.0086164   -18.378286   -23.977339   -16.571057   -12.024656    40.115681    40.110826    48.122013 
   21400   -143457.55   -143461.53    3.9780947     10.62515   -156467.66            0    972.81781    5.1301684    35.206651    34.208266    32.636003    41.196131    40.109267    40.106031    48.114942 
   21500   -143457.59   -143461.49    3.9034435     10.57637   -156480.65            0     980.0928    5.0338979   -52.393858   -60.009159   -57.197035   -37.608774    40.108194    40.107758    48.121929 
   21600    -143457.6   -143461.43    3.8236216    10.667352    -156498.2            0    986.94127    4.9309592    51.733243    54.921198    59.261485    43.593484    40.104551    40.107959    48.134275 
   21700   -143457.61   -143461.48    3.8703361    10.687684   -156462.67            0       971.87    4.9912024   -30.361781   -35.887719   -38.577814   -14.013229    40.097543    40.099305     48.13366 
   21800   -143457.62   -143461.53    3.9091142    10.616534   -156499.88            0    988.47221    5.0412108    4.0630374    10.014995    22.658839   -17.863383    40.106382    40.106597    48.134534 
   21900   -143457.62   -143461.52    3.8963826    10.599817   -156478.71            0    978.47288    5.0247921    50.965986    47.380985    36.734984    71.206932    40.106126    40.104299     48.12441 
   22000   -143457.62   -143461.48    3.8594062    10.559333   -156475.78            0     978.4673    4.9771072   -81.125794   -72.947597   -52.814732   -115.19152    40.110898     40.10742    48.116138 
   22100   -143457.59   -143461.53    3.9369096    10.554151   -156502.03            0    988.14303    5.0770559    128.80735    129.01446    112.33937    147.58676    40.113017     40.11001    48.121249 
   22200   -143457.56    -143461.4      3.83315    10.748668   -156459.66            0    971.21449     4.943247   -113.45886    -103.7349   -78.896779   -155.52559    40.101709    40.103555    48.124166 
   22300   -143457.53   -143461.38    3.8476298    10.760956   -156498.96            0    987.37943    4.9619203    92.363327    99.396857    76.934464    103.21471    40.103011    40.105782    48.136918 
   22400   -143457.51   -143461.36     3.849219    10.770043   -156487.92            0    983.57108    4.9639696     22.14413    32.040207    61.001362   -23.998796     40.10011    40.102316    48.138235 
   22500   -143457.49   -143461.36     3.871391    10.758225   -156461.07            0    971.84391    4.9925628    -185.7066   -172.69496   -193.57568   -188.31658    40.103182    40.103373    48.127261 
   22600   -143457.48   -143461.44    3.9546159    10.642262   -156512.26            0    991.33512      5.09989    361.78073    370.26423    387.12991    330.31316    40.111148    40.107251    48.125253 
   22700   -143457.49   -143461.35    3.8614343    10.789034   -156461.35            0     973.0323    4.9797226   -297.34603   -280.55867   -283.51605   -325.63503    40.111382    40.105955    48.117091 
   22800   -143457.51   -143461.44     3.921271    10.641033   -156486.65            0      980.876    5.0568882    136.82194    137.73808    135.03933     139.9441    40.109658    40.107002    48.120694 
   22900   -143457.57   -143461.41    3.8378069    10.665773   -156493.83            0    986.30617    4.9492526   -56.325145   -42.471546   -33.735381   -90.203595    40.103771    40.107661    48.134555 
   23000   -143457.62   -143461.44    3.8224946    10.705011   -156463.86            0    971.75772    4.9295058   -21.283455   -19.959905   -30.898191    -10.30973    40.098378    40.101975    48.131716 
   23100   -143457.64   -143461.51    3.8778842    10.509559    -156504.2            0    990.16857    5.0009365    57.383152    67.575924    81.959058    25.093723    40.103705     40.10606    48.138921 
   23200   -143457.64   -143461.52    3.8807142    10.591582   -156468.03            0    973.72006     5.004586   -96.524134   -95.183387   -111.46716   -80.495462    40.106484    40.104939     48.12433 
   23300   -143457.64   -143461.49    3.8513667    10.618453   -156480.58            0    978.90538    4.9667394    88.827573    96.373829    112.67483    59.867183    40.109827    40.105585     48.11874 
   23400   -143457.62   -143461.48     3.854884    10.656722   -156499.34            0    988.72907    4.9712753   -78.546577   -76.974078   -94.642985   -61.551425    40.114847    40.110175    48.122648 
   23500   -143457.61   -143461.39    3.7816359    10.707394      -156461            0    970.15552    4.8768142    34.748196    39.728996    52.630449    14.327413    40.103267    40.103879    48.120012 
   23600   -143457.58   -143461.37    3.7887586    10.679366   -156499.01            0    988.19198    4.8859997    10.562066    13.423278   -3.2731265    24.035202    40.102359    40.107317    48.137621 
   23700   -143457.55   -143461.48    3.9340018    10.596874   -156481.62            0    980.46226     5.073306   -68.831397   -66.003141   -55.086004   -82.715312    40.101144    40.105645    48.134652 
   23800   -143457.52   -143461.45    3.9317826    10.607259   -156471.18            0    974.25345    5.0704441    136.57065    140.49936    128.86905    143.12699     40.10084    40.101404    48.127978 
   23900   -143457.51   -143461.39    3.8831894    10.728992   -156498.37            0     989.1041     5.007778   -185.12482   -183.74908   -183.52036   -185.41753    40.112905    40.110593    48.127205 
   24000   -143457.51   -143461.39    3.8774745    10.720994   -156471.69            0    974.47263    5.0004081    207.52085    214.63137      212.909    197.84189    40.109185    40.102457    48.113575 
   24100   -143457.52   -143461.41    3.8862201    10.717332   -156489.19            0    984.60805    5.0116865   -99.198708   -104.88946   -123.48765   -66.379595    40.111862    40.108563    48.122145 
   24200   -143457.54   -143461.48    3.9373717    10.612683   -156488.84            0    984.06329    5.0776518   -24.952091   -14.192224   -0.1609701   -57.761397    40.105617     40.10744    48.127993 
   24300   -143457.58   -143461.48    3.8953787     10.66127   -156467.77            0     972.3512    5.0234975    153.58343    147.75384    117.72574    197.83098    40.096381    40.102175    48.130699 
   24400   -143457.64   -143461.53    3.8888063    10.534076   -156502.23            0    991.10229    5.0150217   -154.48961   -148.43541     -128.334   -184.19636    40.105265     40.10887    48.137992 
   24500   -143457.68   -143461.53    3.8554398    10.488407   -156471.07            0    974.15723    4.9719921    127.57601    123.99115    99.915545    161.32434    40.103576    40.102564    48.123631 
   24600   -143457.69   -143461.44    3.7529658    10.648161   -156480.38            0    980.05215    4.8398411   -77.094949   -74.034321   -58.188404   -96.614051     40.11096    40.105722    48.121964 
   24700   -143457.68   -143461.46    3.7846812     10.68534   -156501.53            0    989.49686    4.8807415    36.411129    33.743215    14.340283    63.575692    40.116364     40.10852    48.118844 
   24800   -143457.66   -143461.52    3.8612713    10.578458   -156460.98            0     969.9635    4.9795124    8.3890612    9.1768031      20.0037   -1.5413605    40.104876    40.103618    48.120059 
   24900   -143457.63   -143461.54    3.9080262    10.530204   -156496.46            0    987.36539    5.0398077   -55.958838   -57.269323   -71.226427   -36.860373    40.105021    40.109749    48.132165 
   25000    -143457.6   -143461.56    3.9585835    10.528382   -156480.03            0    978.16969    5.1050066    81.308955    79.149958    87.584482    79.692878    40.097954    40.104573    48.135695 
   25100   -143457.57   -143461.57      3.99594    10.456007   -156473.32            0    977.14948    5.1531817   -105.39285   -107.52974   -112.56661   -93.659279    40.101215     40.10414    48.131905 
   25200   -143457.55   -143461.44    3.8820543    10.698415    -156501.6            0    988.44404    5.0063142    80.212659    74.986358    74.594856    93.660064    40.110076    40.108657    48.127322 
   25300   -143457.54   -143461.45    3.9141102    10.676788   -156462.39            0    971.24286    5.0476537   -49.485615   -52.076398   -44.206518   -49.401771    40.109461    40.103028    48.117345 
   25400   -143457.53   -143461.44    3.9098152     10.69889   -156495.42            0    986.99452    5.0421148   -47.607277   -59.384392   -72.991932    -7.978285    40.115331    40.109876    48.118538 
   25500   -143457.53   -143461.38    3.8502984    10.775809   -156485.01            0    979.65102    4.9653616    146.74875    145.41406    171.52906    125.90932    40.106215    40.105314    48.127037 
   25600   -143457.54   -143461.49    3.9483614    10.608777   -156461.58            0    973.07373    5.0918242   -258.26127   -274.26064   -303.12658   -194.80178    40.099558       40.105    48.130386 
   25700   -143457.56   -143461.48    3.9161498    10.514616   -156510.58            0    990.95816     5.050284    270.69898    266.87315    310.68715    237.03194    40.102735    40.105231    48.140232 
   25800   -143457.61   -143461.38    3.7679525    10.662673   -156466.02            0    974.69767    4.8591681   -170.59632   -185.96802   -217.18594   -105.98039    40.102302    40.103635    48.128138 
   25900   -143457.66   -143461.52    3.8610847    10.570529    -156483.8            0    980.55221    4.9792717    39.275672     35.86936    68.070007    16.566773    40.110181    40.105789    48.121815 
   26000   -143457.68   -143461.59    3.9102796     10.44759   -156496.06            0     986.3873    5.0427137    37.829625    28.980521    15.605236    71.566361    40.113951    40.108771    48.119968 
   26100   -143457.68   -143461.47    3.7835241    10.608646   -156463.83            0    972.40989    4.8792493   -54.458777   -59.123201   -42.781259   -59.077403    40.107908    40.105341    48.115862 
   26200   -143457.67   -143461.54    3.8722882    10.586512   -156500.84            0    988.26494    4.9937199    71.119957    66.660548    64.077628    85.042688    40.105562    40.108946    48.131647 
   26300   -143457.65    -143461.5    3.8463889    10.598068    -156474.9            0    977.76151      4.96032   -53.592142   -56.803166   -47.908986   -53.430327    40.097758    40.104665    48.134113 
   26400   -143457.63   -143461.46    3.8277396    10.706704   -156480.12            0    979.06249    4.9362698    42.313797    39.388229    44.896831    45.371377    40.101135    40.103641    48.132626 
   26500    -143457.6   -143461.56    3.9567807     10.55779   -156499.99            0    988.88765    5.1026817  -0.76115205   -2.7447157   -1.4524034    4.6571161    40.107756    40.107331    48.131219 
   26600   -143457.59   -143461.46      3.87075    10.603171   -156459.77            0    969.81613    4.9917362   -33.124275   -33.785325   -18.548548   -44.476535    40.109467    40.103178    48.115474 
   26700   -143457.57   -143461.44    3.8701037     10.73238    -156499.2            0    987.69296    4.9909027    90.601459    88.957558    79.294844     105.8141    40.113868    40.107986    48.120686 
   26800   -143457.57   -143461.43    3.8608354    10.690153   -156481.81            0    981.49881    4.9789503   -149.35309   -145.50972   -114.96024   -185.10728    40.109573    40.107042    48.124335 
   26900   -143457.57   -143461.48    3.9167588    10.636502   -156471.44            0    973.64419    5.0510693    186.39839    184.89878    160.08408    216.81518    40.098349     40.10359    48.128017 
   27000   -143457.57   -143461.42    3.8553727    10.729332   -156501.23            0    990.48958    4.9719055   -152.10253   -144.56739   -98.393509   -211.02812    40.102269     40.10777    48.142925 
   27100   -143457.57   -143461.46    3.8876295    10.668606    -156466.5            0    972.36771    5.0135041    14.991338    14.465618   -15.537724    48.519768    40.100655    40.103791    48.128274 
   27200   -143457.57   -143461.45    3.8739988    10.584077   -156488.79            0    982.50871    4.9959258    98.001157    109.03979    147.57476    39.943234    40.107719    40.104006    48.127731 
   27300   -143457.58   -143461.52     3.935805    10.588024   -156485.72            0    982.91768    5.0756314   -198.04821   -195.93526   -216.91314   -178.78032    40.115835    40.109074    48.120023 
   27400   -143457.59   -143461.55    3.9563445    10.509851   -156470.49            0     973.4113    5.1021191    196.21533    205.75928    226.32338    159.08859    40.108751    40.101438    48.116388 
   27500   -143457.63    -143461.4    3.7721167    10.720536   -156499.71            0    989.67946    4.8645383   -172.01983   -165.65963   -171.18172   -176.73227    40.109838    40.110597    48.130893 
   27600   -143457.66   -143461.49    3.8279385    10.574227   -156471.38            0    974.27636    4.9365262    88.577617    97.465762    100.16618    70.416008     40.09832    40.103413    48.131291 
   27700   -143457.68   -143461.46     3.786332    10.631147      -156480            0    979.24028    4.8828703   -13.536981   -6.9074139   0.41634557   -31.711239    40.098964    40.103807    48.137051 
   27800   -143457.69   -143461.47    3.7792026    10.684375   -156497.54            0    987.83391    4.8736762   -68.431314   -59.019708   -72.310577   -71.498822    40.107224    40.108175    48.132893 
   27900   -143457.67   -143461.59    3.9190807    10.442029   -156464.13            0    971.01177    5.0540636    124.60915     131.4939    147.79006    96.972107    40.105406    40.100782    48.119629 
   28000   -143457.65   -143461.53    3.8783805    10.645416   -156495.93            0    987.78845    5.0015765   -143.29177   -137.38448   -163.32541   -126.52023    40.116507    40.109561    48.120852 
   28100   -143457.61   -143461.42    3.8111326     10.76131   -156484.78            0    980.82528    4.9148533    136.39219    143.87873    165.67568    102.29687    40.110091    40.104746    48.119558 
   28200   -143457.57   -143461.43    3.8653884    10.704733   -156469.76            0    975.10359    4.9848218   -77.745175   -74.992753   -107.44718    -48.19997    40.101376    40.105312    48.128372 
   28300   -143457.54   -143461.41    3.8628734    10.812888   -156500.92            0    989.04912    4.9815784     15.25039    22.777827    45.287325   -19.744006    40.102441    40.107538    48.138123 
   28400   -143457.53   -143461.47    3.9354157    10.634391      -156467            0    972.57596    5.0751293    89.414627    88.970189    56.622287    125.17016    40.097022    40.101905    48.131382 
   28500   -143457.54   -143461.54    4.0036275    10.457646   -156490.52            0    986.43659    5.1630955   -215.73945   -205.03049   -184.89764   -254.67874    40.108593     40.10801    48.129588 
   28600   -143457.55    -143461.5    3.9590017    10.545867   -156494.51            0     982.8405     5.105546    409.38235    402.98457     365.9679    461.74023    40.109198    40.105591    48.118201 
   28700   -143457.56   -143461.41    3.8511953     10.73454   -156459.13            0    972.94573    4.9665183   -389.59848   -378.80658   -373.89722   -413.65621    40.112053    40.105144    48.117843 
   28800   -143457.57   -143461.34    3.7673574    10.845056   -156508.75            0    991.41991    4.8584006    186.56067    182.80726    171.50953    207.92539    40.111984      40.1091    48.124129 
   28900   -143457.58   -143461.44    3.8597029    10.660275   -156466.38            0    972.58255    4.9774898  -0.51907057    3.9263602   -12.827402    9.8018493    40.099927    40.102496    48.130531 
   29000   -143457.61   -143461.43    3.8150368    10.654573   -156482.68            0    981.57597    4.9198882   -91.816464   -95.279919   -86.020465   -91.748716    40.100877    40.105634    48.134779 
   29100   -143457.65   -143461.43    3.7850021    10.669194   -156498.98            0    986.87659    4.8811553    122.46351    124.28446    100.67513    144.54664    40.103851     40.10642    48.135003 
   29200   -143457.68   -143461.46    3.7839276    10.656053   -156462.31            0    972.34999    4.8797696   -129.67877    -131.6525   -115.72694   -139.24603     40.10493    40.104981    48.120891 
   29300   -143457.72   -143461.51    3.7935234    10.567883   -156500.25            0    987.57461    4.8921444    91.816335    89.237829    63.663106    125.32212     40.11398    40.109685    48.120529 
   29400   -143457.74    -143461.6    3.8575298    10.574679   -156474.07            0    976.57019    4.9746873   -54.614278   -53.160332   -36.529767   -71.626201    40.110744    40.105999    48.118779 
   29500   -143457.74   -143461.57    3.8245722    10.563802   -156477.55            0    978.22962    4.9321851   -9.3263954   -14.610734   -38.269827     27.35635    40.106825    40.105251    48.123736 
   29600   -143457.71   -143461.45    3.7370761    10.724789   -156499.44            0    987.48044    4.8193497    54.348684    57.151874    73.390641    34.950939    40.103653    40.105217    48.139072 
[...]
  228200   -143262.18   -143363.18    100.99725    52.927819   -156363.67            0    981.56847    130.24649    -64.95945   -478.29604    483.68786   -145.10742    40.139397    40.114465    48.140975 
  228300   -143262.17   -143362.52    100.34882    53.308837   -156409.73            0    1002.6158    129.41028    78.134781    167.50098   -44.578472    167.81483    40.100844     40.15959     48.15152 
  228400   -143262.06   -143362.31    100.25334    53.372708   -156399.41            0    1000.0151    129.28715   -142.91727    912.45994   -1299.5766    14.392612    40.078849    40.177403    48.156376 
  228500   -143261.95   -143362.83    100.87418    53.265612   -156369.87            0    983.74455    130.08779    137.65331    97.758202    268.12168    101.42302    40.111626    40.120282    48.161979 
  228600   -143261.87   -143362.68    100.80643      53.2044   -156429.13            0    1013.1304    130.00041   -174.41386   -1024.9896    908.53793   -352.69156    40.154482    40.106918    48.169469 
  228700   -143261.76   -143363.86    102.09902    52.496799   -156378.63            0    987.33975    131.66735      117.727     36.54017    253.27175    119.32983    40.143502    40.116988    48.133491 
  228800   -143261.55   -143363.96    102.41182    52.863961   -156373.11            0    986.28057    132.07073   -83.525649    548.49477   -774.50102     29.38958    40.136948    40.137461    48.119446 
  228900   -143261.46   -143362.93    101.47949    53.020527   -156416.78            0    1005.1444     130.8684    57.670286     89.52872   -24.346166     160.5983    40.158009    40.138054    48.116042 
  229000   -143261.28    -143363.5    102.22333    52.962346   -156364.04            0    982.13496    131.82766   -47.776131    -334.5555    437.64367   -188.87839    40.154906     40.11198    48.122706 
  229100      -143261    -143362.5    101.50427    52.949516   -156399.06            0    998.51226    130.90036     42.04455   -18.657973    93.166428    106.93397    40.154788    40.115721    48.133889 
  229200   -143260.61   -143360.48    99.870659    53.708205   -156416.17            0    1006.9838    128.79364   -104.62139   -6.4824748   -359.26035    104.22997    40.156084    40.130906     48.13333 
  229300   -143260.22   -143361.54    101.32255    53.322159   -156345.62            0    973.13972      130.666    56.917907    255.10818   -43.660602    14.400538    40.127108    40.115114    48.141549 
  229400   -143259.99   -143360.32    100.32307    53.607842   -156405.23            0     1002.724    129.37707   -43.722308   -279.06647    298.88848   -96.511904    40.128985    40.123113    48.163396 
  229500    -143259.9   -143361.39     101.4922    53.363971   -156414.38            0     1006.189    130.88479   -14.649461   -122.70716    153.37065   -18.778026    40.110481    40.146858    48.162098 
  229600   -143260.03   -143362.57    102.54656    52.835004   -156343.98            0    972.86557     132.2445    8.2605608    452.60925   -610.45521    241.48828    40.086316    40.148316    48.149562 
  229700   -143260.55   -143361.43    100.88211    53.563206   -156427.84            0    1012.9582    130.09801   -117.65082    339.22204   -496.91472   -138.79192    40.121529    40.146437    48.159817 
  229800   -143261.41   -143362.32    100.91049    53.032449   -156399.61            0    998.09828    130.13461    96.303029   -595.74579    1296.1127   -357.68208    40.169065    40.094762    48.141431 
  229900   -143262.54   -143362.51    99.960881    52.730368   -156358.48            0    980.24629    128.90999   -126.49643   -632.96205    457.81618   -147.06016    40.189461    40.109676    48.083757 
  230000   -143263.13   -143362.65    99.515454    53.033546   -156439.68            0    1016.1942    128.33557     49.34338    584.40862   -758.26579    375.46304    40.169712    40.151129    48.097026 
  230100   -143263.37      -143364    100.62847    52.744402   -156371.78            0    985.96016    129.77091    -70.73707     297.0262   -530.32123    75.531364    40.133753    40.139149    48.117547 
  230200   -143263.45   -143362.34    98.892595    53.135577   -156389.96            0    993.71507    127.53232    38.305856   -343.15992    649.64394   -136.09805    40.122661    40.123298    48.159017 
  230300   -143263.21   -143362.01    98.800958    53.054509   -156422.65            0    1009.8477    127.41415   -96.648036    -379.4076    376.41696   -231.75202     40.11078    40.122273    48.197094 
  230400   -143262.71   -143363.44    100.72976    52.982656   -156361.66            0    980.49091    129.90154    59.710908    339.47199   -404.76805    300.78423    40.092735    40.127618    48.172767 
  230500   -143262.03   -143362.54    100.50725    52.943209   -156409.44            0     1003.644    129.61458   -60.616679     222.1227   -252.68309   -93.189176    40.112523    40.124181    48.184628 
  230600   -143261.08   -143362.37    101.28935    53.415891   -156402.55            0    1000.1833    130.62319     14.35544   -167.81925    239.83835    27.648652    40.129789    40.128367    48.152199 
  230700   -143260.06   -143361.86    101.79654    53.299375    -156363.7            0     982.6759    131.27727   -40.409495   -279.22307     315.0426   -104.48342    40.127231    40.127875    48.137685 
  230800   -143259.39   -143360.61    101.21775     53.49737   -156404.66            0    1001.2967    130.53086    25.906987    226.69977   -183.68265    85.671968    40.140878    40.142689    48.126163 
  230900   -143259.24   -143360.95     101.7089    53.867302   -156392.33            0    996.91551    131.16424   -66.421637    214.37254   -445.34466     84.73689    40.150279    40.145235    48.104984 
  231000    -143259.5   -143361.27    101.76343    53.374605   -156377.32            0    988.00125    131.23457    44.964775   -128.28941    349.46839   -30.004061    40.149099    40.121756    48.126134 
  231100   -143259.81   -143361.26    101.45166     53.59762    -156405.2            0    1002.5313    130.83251   -66.032765   -660.88734    843.08895   -327.76697    40.149202    40.107234    48.158302 
  231200    -143260.2   -143361.93    101.72779    53.285448   -156382.06            0    990.44603     131.1886    33.579701    309.73746   -397.08319     239.6563    40.108978    40.133384     48.16164 
  231300   -143260.75   -143362.85    102.10811     52.89136   -156390.26            0    994.25767    131.67907   -47.741558    891.00612    -1121.296    141.89728    40.084089    40.150295    48.176736 
  231400   -143261.48   -143362.11    100.62689    52.994014   -156397.06            0    997.75626    129.76888   -50.336193   -215.34722    191.77588   -73.084181    40.120733    40.123257    48.169328 
  231500   -143262.09   -143361.07    98.975787    53.476176   -156387.85            0    993.04202    127.63961    44.935158   -435.80207    768.67893   -144.72515    40.148304    40.100311    48.157005 
  231600   -143262.53   -143363.84    101.30899      53.0701   -156395.91            0    997.11486    130.64852    -52.76004   -7.0105987   -159.25606    63.463129    40.155232    40.126957    48.119632 
  231700   -143262.91    -143364.6    101.68327    52.406689   -156387.94            0    991.64455    131.13118    39.101312    394.65549   -387.82072    165.51049     40.15974    40.122688    48.114625 
  231800   -143263.11   -143363.75    100.64182    52.888026   -156385.69            0    991.47527    129.78814   -52.241938   -58.756298   -76.141595     33.28361    40.160483    40.122073    48.116679 
  231900   -143262.92   -143362.77    99.853222    53.330848   -156395.43            0    996.26738    128.77115    51.163506   -307.77529    486.67047    31.489606    40.143451    40.122661    48.136716 
  232000   -143262.37   -143362.52    100.15297    53.322943   -156395.18            0    997.17824    129.15771   -76.077383    7.7494213   -37.750828   -141.49569    40.099503    40.149159    48.161569 
  232100   -143261.31   -143362.69    101.38575    53.019784    -156390.5            0     993.9839     130.7475    13.498747    239.07865   -383.46973    241.57654    40.089359    40.160157    48.157983 
  232200   -143259.91   -143362.26    102.35287    53.164358   -156378.38            0    989.48322    131.99472   -22.196069    129.98406   -179.99594    41.743799    40.091887    40.150136    48.159932 
  232300   -143259.14    -143360.2    101.06201     53.38819   -156405.27            0    1001.2878    130.33001    47.683569   -228.69581    714.51736   -288.93759    40.112294    40.128801    48.176976 
  232400   -143258.92   -143360.47     101.5469    53.481491   -156365.15            0    984.14789    130.95532   -110.27911   -413.84103    318.12864   -182.04782    40.129317    40.096559    48.177628 
  232500   -143258.98   -143361.34    102.36442    53.286437   -156405.26            0    1001.8321     132.0096    51.093064    697.66418   -1180.2136    689.93166    40.144983     40.10932    48.157611 
  232600   -143259.58   -143361.04    101.45785    53.419198   -156398.72            0    999.13514    130.84049   -46.669295    426.50718   -777.83414    267.07825    40.159826     40.08973    48.163899 
  232700   -143260.37   -143362.16    101.78795    53.294679   -156374.64            0    987.26225    131.26619   -26.637841   -537.35933    988.17677   -475.95768    40.158812    40.069858    48.175652 
  232800   -143261.09   -143362.54    101.44989    53.103899   -156417.65            0    1007.2304    130.83022   -13.334632   -253.35078    504.00058   -236.34621    40.151063    40.109713    48.158868 
  232900   -143261.54   -143361.57    100.03169    52.983892   -156384.58            0    992.06541    129.00131   -43.404349    92.412794   -528.40806    362.36975    40.133684    40.150463    48.115695 
  233000    -143261.8   -143361.92    100.12541    52.961282   -156389.83            0    994.47131    129.12217    7.0593819    353.77022   -426.89612    152.33386    40.115271    40.164533    48.119224 
  233100   -143262.02    -143363.4    101.38386    52.943916   -156411.89            0    1004.2173    130.74507   -55.178183    -178.2951    346.47459   -277.57356    40.123666    40.152199    48.139031 
  233200   -143262.08   -143362.78     100.6949    52.666879   -156373.83            0    986.32511    129.85658    23.219725   -264.23618    555.51873    -165.6381    40.126179    40.127656      48.1411 
  233300   -143262.11   -143362.75    100.64553    52.782681   -156382.69            0     991.0665    129.79292   -62.630344    17.350827   -417.21441    264.69645    40.131199    40.127308     48.14258 
  233400   -143262.24   -143362.34    100.09811    52.422508   -156425.23            0    1009.7286    129.08696    12.558806    399.98478   -436.61871    126.32963    40.151347    40.107457    48.166116 
  233500   -143262.21   -143363.27    101.05377    52.592685   -156359.97            0    980.28811    130.31938    -45.07394   -152.04452    200.56158   -128.99426    40.152761    40.078354    48.163533 
  233600   -143261.92   -143363.41    101.48544    52.610465   -156421.15            0    1007.4195    130.87607    11.898638   -256.12711    464.39905   -115.63575    40.146598    40.092612    48.188404 
  233700   -143261.46   -143361.85    100.39086    52.758989   -156391.69            0    995.40721    129.46449   -49.596986   -84.784954   -60.908631    52.694282    40.115457    40.122246     48.17445 
  233800   -143260.45   -143360.79    100.33463    53.211119   -156371.93            0    985.99822    129.39197    34.719911    352.03137   -501.15847    305.37165    40.090722    40.162936    48.143149 
  233900   -143259.35   -143361.33    101.98515    53.161108   -156421.88            0    1010.0404     131.5205   -94.915725    40.230909    22.233739   -292.89817    40.097497    40.176469    48.149786 
  234000   -143258.87   -143360.92    102.04689    53.111669   -156384.35            0    992.46708    131.60012   -2.9186266   -383.66339    638.85942    -208.8432    40.109338    40.146879    48.146435 
  234100   -143258.91   -143359.94      101.031    53.414118   -156374.92            0    988.46617    130.29002   -77.424922   -123.35874   -125.78496    73.634138    40.123476    40.127052    48.153709 
  234200   -143259.28    -143361.8    102.51684    53.334707   -156420.23            0    1008.2869    132.20616     52.79382    433.62578   -741.29194    524.40442    40.133692    40.124641    48.162435 
  234300   -143260.21   -143364.07    103.86611    52.448525    -156372.1            0    986.28888    133.94619   -71.094945    230.79429   -109.18169    -274.7015    40.127151    40.092746    48.182975 
  234400   -143261.11   -143363.04    101.92262    53.050207    -156368.3            0    982.25027    131.43986    69.058909   -467.64263    1170.2498   -441.37161     40.14214    40.068798    48.193306 
  234500    -143261.9   -143362.38    100.47815    52.924327   -156415.91            0    1007.2591    129.57706   -86.118261   -426.53234    131.35101    93.281556    40.137003    40.111065    48.173298 
  234600   -143262.29    -143362.3    100.01254    52.983204   -156399.21            0      998.579    128.97661    6.0042391    411.39638    -755.2935     414.5244    40.105384    40.152551    48.150722 
  234700   -143262.45   -143362.29    99.841078    52.639932   -156373.02            0    986.20655    128.75549   -19.324024    226.87719   -222.21049   -8.2364313    40.103311    40.138475    48.156727 
  234800   -143262.55   -143362.61    100.05872    52.769319   -156387.34            0    993.33532    129.03617   -36.782048   -223.91401    412.29761   -240.65104    40.125975    40.109623    48.170732 
  234900   -143262.42   -143363.66    101.24089    52.577104   -156405.83            0    1000.8127    130.56069    8.3412023   -90.824305    128.35447     44.28473    40.143194    40.105095    48.165915 
  235000   -143262.18   -143364.14    101.95637    52.968686   -156378.04            0    988.43307    131.48338   -43.743249    19.795363   -227.07497    129.74409    40.146907    40.097195    48.156473 
  235100   -143261.96   -143362.04     100.0784    53.028715   -156407.66            0    1002.0541    129.06154    9.7537479    196.29335   -179.78016    66.056836    40.136131    40.115254    48.164631 
  235200   -143261.59   -143362.18    100.59628    52.875405   -156389.75            0    993.82288    129.72941   -31.867716    13.726746    184.37473   -238.71551    40.107523    40.130344    48.173474 
  235300   -143260.89   -143361.52    100.63534    53.395684   -156391.31            0    995.77598    129.77977   -25.284459   -149.27107    245.24069   -115.61028    40.079138    40.142956    48.190119 
  235400   -143259.71   -143361.73    102.02213    52.905926   -156405.95            0    1001.8016    131.56818   -14.681343    2.9626356   -253.14645    259.68016    40.097378    40.145152    48.176033 
  235500   -143258.56   -143361.82    103.25998    53.082802   -156375.95            0    988.12493    133.16453   -47.492819    184.41076   -481.05738    206.35811    40.138034    40.131107    48.129924 
  235600   -143257.97   -143360.75    102.77417    53.658527    -156397.1            0     998.1161    132.53801    28.550267    89.560836     341.2309   -293.17158     40.17013    40.110887    48.124434 
  235700   -143257.97   -143360.41    102.44097    53.509835   -156404.17            0    1001.4406    132.10832   -56.252414   -532.22987    688.05813   -268.33165    40.195528    40.093318    48.124739 
  235800   -143258.59    -143359.4    100.81476    53.757803    -156378.8            0    990.70678    130.01116    35.866025   -50.208563   -256.10812    471.37043    40.161465    40.104007     48.13013 
  235900   -143259.43   -143360.43    101.00359    53.614317   -156407.62            0    1004.2323    130.25468   -112.15329    316.61112   -945.07313    343.13496    40.122803    40.152762    48.140168 
  236000   -143260.25   -143361.58    101.32951    53.371694   -156410.45            0     1003.758    130.67498    85.090968    293.15245    356.36839   -342.06868    40.094278     40.14159    48.181814 
  236100   -143260.73   -143361.42     100.6907    53.087356   -156366.78            0    983.94561    129.85117   -89.403531   -760.75597    1495.7262   -945.32779    40.096757    40.113752    48.196401 
  236200   -143261.03   -143362.64    101.61268    53.225969   -156399.35            0    998.60954    131.04016    34.163123    -337.2495   -323.70179    819.86924    40.096104    40.144517     48.16963 
  236300   -143261.37   -143362.29    100.91882    53.338439   -156405.08            0    1002.4441    130.14536   -70.328017    567.39687   -1244.9644    521.32291    40.084109    40.155161    48.176795 
  236400   -143261.87   -143360.99    99.121343    53.390023   -156367.53            0    983.98932    127.82732   -0.8763792    155.04534    147.46832   -250.54943    40.112593    40.118639    48.168339 
  236500   -143262.14   -143362.43    100.28964    52.916066   -156395.36            0    996.71967    129.33396   -9.8194364   -234.99109    636.85624   -376.33616    40.141225    40.121094    48.144082 
  236600   -143262.53   -143363.68    101.14926    52.624273   -156417.56            0    1007.2106    130.44252   -75.832173   -226.89645   -64.734488    120.10974    40.148981    40.142244     48.12176 
  236700   -143262.93   -143363.08     100.1499      52.9146   -156365.96            0    982.24523    129.15375    3.1330016    103.85255    -448.2727    403.80056    40.141531    40.142838    48.102556 
  236800   -143263.08   -143363.35    100.26378    52.687269   -156393.86            0    995.56535    129.30061   -27.221697    246.35905   -33.113573    -242.1038    40.132948    40.150939    48.117253 
  236900   -143263.08   -143363.31     100.2356    52.860808   -156406.91            0    1001.7239    129.26427   -14.532499   -80.177787    368.73354   -275.52958    40.123275    40.146767    48.139473 
  237000   -143262.82   -143363.37    100.55132    52.643865   -156369.96            0    984.91388    129.67143   -29.837914   -88.324931    82.198139   -26.668813    40.098286    40.128947    48.171471 
  237100   -143262.03   -143363.46    101.42993    53.088972   -156412.47            0    1003.9894    130.80448    -13.77041   0.45170126   -368.77996    383.46804     40.10988     40.12947     48.18268 
  237200   -143260.99   -143362.86    101.87633    53.016903   -156396.14            0    996.76422    131.38016   -21.308793    289.65253   -45.176831   -254.29196    40.117091    40.108145    48.190645 
  237300   -143260.11    -143361.3    101.18605    53.020209    -156371.3            0    986.07347    130.48998  0.032293614   -46.699032    308.68558   -209.62944    40.135573     40.10433    48.158672 
  237400   -143259.49   -143362.78    103.29209    52.910954   -156411.09            0    1004.2339    133.20594   -52.582203   -389.67651    131.49315    155.30387    40.164213    40.116101    48.133962 
  237500   -143259.44   -143360.08    100.63571    53.790958   -156383.88            0    991.74484    129.78025    53.579751     200.6131   -404.40027    422.30445    40.142099    40.134201    48.122446 
  237600   -143259.75   -143361.14    101.39188    53.020525   -156369.17            0    985.31746    130.75541   -74.249793    423.98703   -536.56416   -51.865355    40.125035    40.149195    48.121208 
  237700   -143260.29   -143361.78    101.48859    53.253611    -156431.6            0    1013.8682    130.88013  -0.67729955      54.2539    838.66719   -835.21463    40.125576    40.112782    48.192792 
  237800   -143261.15   -143361.01     99.85949    53.632915   -156354.46            0    979.06183    128.77924   -72.25