ITEM: TIMESTEP
0
ITEM: NUMBER OF ATOMS
14000
ITEM: BOX BOUNDS xy xz yz pp pp pp
0.0000000000000000e+00 4.0419143340781005e+01 1.8616694878900000e-01
0.0000000000000000e+00 4.0232976391992004e+01 1.3297639199200001e-01
0.0000000000000000e+00 5.6140000000000001e+01 1.3297639199200001e-01
ITEM: ATOMS id type xs ys zs
1 1 0 0 0
2 2 0 0 0
3 3 0.05 0.05 0.0357143
4 4 0.05 0.05 0.0357143
5 5 -5.42101e-20 0.05 0.0357143
6 6 -5.42101e-20 0.05 0.0357143
7 5 0.05 -2.71051e-20 0.0357143
8 6 0.05 -2.71051e-20 0.0357143
9 5 0.05 0.05 0
10 6 0.05 0.05 0
11 1 0 -5.42101e-20 0.0714286
12 2 0 -5.42101e-20 0.0714286
13 3 0.05 0.05 0.107143
14 4 0.05 0.05 0.107143
15 5 -5.42101e-20 0.05 0.107143
16 6 -5.42101e-20 0.05 0.107143
17 5 0.05 -1.0842e-19 0.107143
18 6 0.05 -1.0842e-19 0.107143
19 5 0.05 0.05 0.0714286
20 6 0.05 0.05 0.0714286
21 1 0 -1.0842e-19 0.142857
22 2 0 -1.0842e-19 0.142857
23 3 0.05 0.05 0.178571
24 4 0.05 0.05 0.178571
25 5 1.0842e-19 0.05 0.178571
26 6 1.0842e-19 0.05 0.178571
27 5 0.05 1.0842e-19 0.178571
28 6 0.05 1.0842e-19 0.178571
29 5 0.05 0.05 0.142857
30 6 0.05 0.05 0.142857
31 1 -1.0842e-19 -2.1684e-19 0.214286
32 2 -1.0842e-19 -2.1684e-19 0.214286
33 3 0.05 0.05 0.25
34 4 0.05 0.05 0.25
35 5 0 0.05 0.25
36 6 0 0.05 0.25
37 5 0.05 -1.0842e-19 0.25
38 6 0.05 -1.0842e-19 0.25
39 5 0.05 0.05 0.214286
40 6 0.05 0.05 0.214286
41 1 0 -2.1684e-19 0.285714
42 2 0 -2.1684e-19 0.285714
43 3 0.05 0.05 0.321429
44 4 0.05 0.05 0.321429
45 5 2.1684e-19 0.05 0.321429
46 6 2.1684e-19 0.05 0.321429
47 5 0.05 0 0.321429
48 6 0.05 0 0.321429
49 5 0.05 0.05 0.285714
50 6 0.05 0.05 0.285714
51 1 4.33681e-19 2.1684e-19 0.357143
52 2 4.33681e-19 2.1684e-19 0.357143
53 3 0.05 0.05 0.392857
54 4 0.05 0.05 0.392857
55 5 -2.1684e-19 0.05 0.392857
56 6 -2.1684e-19 0.05 0.392857
57 5 0.05 -2.1684e-19 0.392857
58 6 0.05 -2.1684e-19 0.392857
59 5 0.05 0.05 0.357143
60 6 0.05 0.05 0.357143
61 1 -2.1684e-19 -4.33681e-19 0.428571
62 2 -2.1684e-19 -4.33681e-19 0.428571
63 3 0.05 0.05 0.464286
64 4 0.05 0.05 0.464286
65 5 2.1684e-19 0.05 0.464286
66 6 2.1684e-19 0.05 0.464286
67 5 0.05 0 0.464286
68 6 0.05 0 0.464286
69 5 0.05 0.05 0.428571
70 6 0.05 0.05 0.428571
141 1 0 0.1 0
142 2 0 0.1 0
143 3 0.05 0.15 0.0357143
144 4 0.05 0.15 0.0357143
145 5 0 0.15 0.0357143
146 6 0 0.15 0.0357143
147 5 0.05 0.1 0.0357143
148 6 0.05 0.1 0.0357143
149 5 0.05 0.15 0
150 6 0.05 0.15 0
151 1 -1.0842e-19 0.1 0.0714286
152 2 -1.0842e-19 0.1 0.0714286
153 3 0.05 0.15 0.107143
154 4 0.05 0.15 0.107143
155 5 2.1684e-19 0.15 0.107143
156 6 2.1684e-19 0.15 0.107143
157 5 0.05 0.1 0.107143
158 6 0.05 0.1 0.107143
159 5 0.05 0.15 0.0714286
160 6 0.05 0.15 0.0714286
161 1 -1.6263e-19 0.1 0.142857
162 2 -1.6263e-19 0.1 0.142857
163 3 0.05 0.15 0.178571
164 4 0.05 0.15 0.178571
165 5 1.0842e-19 0.15 0.178571
166 6 1.0842e-19 0.15 0.178571
167 5 0.05 0.1 0.178571
168 6 0.05 0.1 0.178571
169 5 0.05 0.15 0.142857
170 6 0.05 0.15 0.142857
171 1 -1.0842e-19 0.1 0.214286
172 2 -1.0842e-19 0.1 0.214286
173 3 0.05 0.15 0.25
174 4 0.05 0.15 0.25
175 5 1.0842e-19 0.15 0.25
176 6 1.0842e-19 0.15 0.25
177 5 0.05 0.1 0.25
178 6 0.05 0.1 0.25
179 5 0.05 0.15 0.214286
180 6 0.05 0.15 0.214286
181 1 -1.0842e-19 0.1 0.285714
182 2 -1.0842e-19 0.1 0.285714
183 3 0.05 0.15 0.321429
184 4 0.05 0.15 0.321429
185 5 2.1684e-19 0.15 0.321429
186 6 2.1684e-19 0.15 0.321429
187 5 0.05 0.1 0.321429
188 6 0.05 0.1 0.321429
189 5 0.05 0.15 0.285714
190 6 0.05 0.15 0.285714
191 1 2.1684e-19 0.1 0.357143
192 2 2.1684e-19 0.1 0.357143
193 3 0.05 0.15 0.392857
194 4 0.05 0.15 0.392857
195 5 -2.1684e-19 0.15 0.392857
196 6 -2.1684e-19 0.15 0.392857
197 5 0.05 0.1 0.392857
198 6 0.05 0.1 0.392857
199 5 0.05 0.15 0.357143
200 6 0.05 0.15 0.357143
201 1 -2.1684e-19 0.1 0.428571
202 2 -2.1684e-19 0.1 0.428571
203 3 0.05 0.15 0.464286
204 4 0.05 0.15 0.464286
205 5 6.50521e-19 0.15 0.464286
206 6 6.50521e-19 0.15 0.464286
207 5 0.05 0.1 0.464286
208 6 0.05 0.1 0.464286
209 5 0.05 0.15 0.428571
210 6 0.05 0.15 0.428571
281 1 0 0.2 0
282 2 0 0.2 0
283 3 0.05 0.25 0.0357143
284 4 0.05 0.25 0.0357143
285 5 5.42101e-19 0.25 0.0357143
286 6 5.42101e-19 0.25 0.0357143
287 5 0.05 0.2 0.0357143
288 6 0.05 0.2 0.0357143
289 5 0.05 0.25 0
290 6 0.05 0.25 0
291 1 2.1684e-19 0.2 0.0714286
292 2 2.1684e-19 0.2 0.0714286
293 3 0.05 0.25 0.107143
294 4 0.05 0.25 0.107143
295 5 -1.0842e-19 0.25 0.107143
296 6 -1.0842e-19 0.25 0.107143
297 5 0.05 0.2 0.107143
298 6 0.05 0.2 0.107143
299 5 0.05 0.25 0.0714286
300 6 0.05 0.25 0.0714286
301 1 -2.1684e-19 0.2 0.142857
302 2 -2.1684e-19 0.2 0.142857
303 3 0.05 0.25 0.178571
304 4 0.05 0.25 0.178571
305 5 0 0.25 0.178571
306 6 0 0.25 0.178571
307 5 0.05 0.2 0.178571
308 6 0.05 0.2 0.178571
309 5 0.05 0.25 0.142857
310 6 0.05 0.25 0.142857
311 1 5.42101e-19 0.2 0.214286
312 2 5.42101e-19 0.2 0.214286
313 3 0.05 0.25 0.25
314 4 0.05 0.25 0.25
315 5 0 0.25 0.25
316 6 0 0.25 0.25
317 5 0.05 0.2 0.25
318 6 0.05 0.2 0.25
319 5 0.05 0.25 0.214286
320 6 0.05 0.25 0.214286
321 1 -3.25261e-19 0.2 0.285714
322 2 -3.25261e-19 0.2 0.285714
323 3 0.05 0.25 0.321429
324 4 0.05 0.25 0.321429
325 5 0 0.25 0.321429
326 6 0 0.25 0.321429
327 5 0.05 0.2 0.321429
328 6 0.05 0.2 0.321429
329 5 0.05 0.25 0.285714
330 6 0.05 0.25 0.285714
331 1 8.67362e-19 0.2 0.357143
332 2 8.67362e-19 0.2 0.357143
333 3 0.05 0.25 0.392857
334 4 0.05 0.25 0.392857
335 5 -4.33681e-19 0.25 0.392857
336 6 -4.33681e-19 0.25 0.392857
337 5 0.05 0.2 0.392857
338 6 0.05 0.2 0.392857
339 5 0.05 0.25 0.357143
340 6 0.05 0.25 0.357143
341 1 -2.1684e-19 0.2 0.428571
342 2 -2.1684e-19 0.2 0.428571
343 3 0.05 0.25 0.464286
344 4 0.05 0.25 0.464286
345 5 6.50521e-19 0.25 0.464286
346 6 6.50521e-19 0.25 0.464286
347 5 0.05 0.2 0.464286
348 6 0.05 0.2 0.464286
349 5 0.05 0.25 0.428571
350 6 0.05 0.25 0.428571
421 1 -2.1684e-19 0.3 0
422 2 -2.1684e-19 0.3 0
423 3 0.05 0.35 0.0357143
424 4 0.05 0.35 0.0357143
425 5 -1.0842e-19 0.35 0.0357143
426 6 -1.0842e-19 0.35 0.0357143
427 5 0.05 0.3 0.0357143
428 6 0.05 0.3 0.0357143
429 5 0.05 0.35 0
430 6 0.05 0.35 0
431 1 0 0.3 0.0714286
432 2 0 0.3 0.0714286
433 3 0.05 0.35 0.107143
434 4 0.05 0.35 0.107143
435 5 -3.25261e-19 0.35 0.107143
436 6 -3.25261e-19 0.35 0.107143
437 5 0.05 0.3 0.107143
438 6 0.05 0.3 0.107143
439 5 0.05 0.35 0.0714286
440 6 0.05 0.35 0.0714286
441 1 -2.1684e-19 0.3 0.142857
442 2 -2.1684e-19 0.3 0.142857
443 3 0.05 0.35 0.178571
444 4 0.05 0.35 0.178571
445 5 6.50521e-19 0.35 0.178571
446 6 6.50521e-19 0.35 0.178571
447 5 0.05 0.3 0.178571
448 6 0.05 0.3 0.178571
449 5 0.05 0.35 0.142857
450 6 0.05 0.35 0.142857
451 1 4.33681e-19 0.3 0.214286
452 2 4.33681e-19 0.3 0.214286
453 3 0.05 0.35 0.25
454 4 0.05 0.35 0.25
455 5 -2.1684e-19 0.35 0.25
456 6 -2.1684e-19 0.35 0.25
457 5 0.05 0.3 0.25
458 6 0.05 0.3 0.25
459 5 0.05 0.35 0.214286
460 6 0.05 0.35 0.214286
461 1 -2.1684e-19 0.3 0.285714
462 2 -2.1684e-19 0.3 0.285714
463 3 0.05 0.35 0.321429
464 4 0.05 0.35 0.321429
465 5 0 0.35 0.321429
466 6 0 0.35 0.321429
467 5 0.05 0.3 0.321429
468 6 0.05 0.3 0.321429
469 5 0.05 0.35 0.285714
470 6 0.05 0.35 0.285714
471 1 2.1684e-19 0.3 0.357143
472 2 2.1684e-19 0.3 0.357143
473 3 0.05 0.35 0.392857
474 4 0.05 0.35 0.392857
475 5 -4.33681e-19 0.35 0.392857
476 6 -4.33681e-19 0.35 0.392857
477 5 0.05 0.3 0.392857
478 6 0.05 0.3 0.392857
479 5 0.05 0.35 0.357143
480 6 0.05 0.35 0.357143
481 1 -2.1684e-19 0.3 0.428571
482 2 -2.1684e-19 0.3 0.428571
483 3 0.05 0.35 0.464286
484 4 0.05 0.35 0.464286
485 5 0 0.35 0.464286
486 6 0 0.35 0.464286
487 5 0.05 0.3 0.464286
488 6 0.05 0.3 0.464286
489 5 0.05 0.35 0.428571
490 6 0.05 0.35 0.428571
561 1 0 0.4 0
562 2 0 0.4 0
563 3 0.05 0.45 0.0357143
564 4 0.05 0.45 0.0357143
565 5 1.0842e-19 0.45 0.0357143
566 6 1.0842e-19 0.45 0.0357143
567 5 0.05 0.4 0.0357143
568 6 0.05 0.4 0.0357143
569 5 0.05 0.45 0
570 6 0.05 0.45 0
571 1 4.33681e-19 0.4 0.0714286
572 2 4.33681e-19 0.4 0.0714286
573 3 0.05 0.45 0.107143
574 4 0.05 0.45 0.107143
575 5 1.40946e-18 0.45 0.107143
576 6 1.40946e-18 0.45 0.107143
577 5 0.05 0.4 0.107143
578 6 0.05 0.4 0.107143
579 5 0.05 0.45 0.0714286
580 6 0.05 0.45 0.0714286
581 1 4.33681e-19 0.4 0.142857
582 2 4.33681e-19 0.4 0.142857
583 3 0.05 0.45 0.178571
584 4 0.05 0.45 0.178571
585 5 2.1684e-19 0.45 0.178571
586 6 2.1684e-19 0.45 0.178571
587 5 0.05 0.4 0.178571
588 6 0.05 0.4 0.178571
589 5 0.05 0.45 0.142857
590 6 0.05 0.45 0.142857
591 1 -4.33681e-19 0.4 0.214286
592 2 -4.33681e-19 0.4 0.214286
593 3 0.05 0.45 0.25
594 4 0.05 0.45 0.25
595 5 2.1684e-19 0.45 0.25
596 6 2.1684e-19 0.45 0.25
597 5 0.05 0.4 0.25
598 6 0.05 0.4 0.25
599 5 0.05 0.45 0.214286
600 6 0.05 0.45 0.214286
601 1 -4.33681e-19 0.4 0.285714
602 2 -4.33681e-19 0.4 0.285714
603 3 0.05 0.45 0.321429
604 4 0.05 0.45 0.321429
605 5 2.1684e-19 0.45 0.321429
606 6 2.1684e-19 0.45 0.321429
607 5 0.05 0.4 0.321429
608 6 0.05 0.4 0.321429
609 5 0.05 0.45 0.285714
610 6 0.05 0.45 0.285714
611 1 6.50521e-19 0.4 0.357143
612 2 6.50521e-19 0.4 0.357143
613 3 0.05 0.45 0.392857
614 4 0.05 0.45 0.392857
615 5 6.50521e-19 0.45 0.392857
616 6 6.50521e-19 0.45 0.392857
617 5 0.05 0.4 0.392857
618 6 0.05 0.4 0.392857
619 5 0.05 0.45 0.357143
620 6 0.05 0.45 0.357143
621 1 1.0842e-18 0.4 0.428571
622 2 1.0842e-18 0.4 0.428571
623 3 0.05 0.45 0.464286
624 4 0.05 0.45 0.464286
625 5 2.1684e-19 0.45 0.464286
626 6 2.1684e-19 0.45 0.464286
627 5 0.05 0.4 0.464286
628 6 0.05 0.4 0.464286
629 5 0.05 0.45 0.428571
630 6 0.05 0.45 0.428571
1401 1 0.1 0 0
1402 2 0.1 0 0
1403 3 0.15 0.05 0.0357143
1404 4 0.15 0.05 0.0357143
1405 5 0.1 0.05 0.0357143
1406 6 0.1 0.05 0.0357143
1407 5 0.15 -2.71051e-20 0.0357143
1408 6 0.15 -2.71051e-20 0.0357143
1409 5 0.15 0.05 0
1410 6 0.15 0.05 0
1411 1 0.1 -5.42101e-20 0.0714286
1412 2 0.1 -5.42101e-20 0.0714286
1413 3 0.15 0.05 0.107143
1414 4 0.15 0.05 0.107143
1415 5 0.1 0.05 0.107143
1416 6 0.1 0.05 0.107143
1417 5 0.15 -1.0842e-19 0.107143
1418 6 0.15 -1.0842e-19 0.107143
1419 5 0.15 0.05 0.0714286
1420 6 0.15 0.05 0.0714286
1421 1 0.1 -1.0842e-19 0.142857
1422 2 0.1 -1.0842e-19 0.142857
1423 3 0.15 0.05 0.178571
1424 4 0.15 0.05 0.178571
1425 5 0.1 0.05 0.178571
1426 6 0.1 0.05 0.178571
1427 5 0.15 1.0842e-19 0.178571
1428 6 0.15 1.0842e-19 0.178571
1429 5 0.15 0.05 0.142857
1430 6 0.15 0.05 0.142857
1431 1 0.1 -2.1684e-19 0.214286
1432 2 0.1 -2.1684e-19 0.214286
1433 3 0.15 0.05 0.25
1434 4 0.15 0.05 0.25
1435 5 0.1 0.05 0.25
1436 6 0.1 0.05 0.25
1437 5 0.15 -1.0842e-19 0.25
1438 6 0.15 -1.0842e-19 0.25
1439 5 0.15 0.05 0.214286
1440 6 0.15 0.05 0.214286
1441 1 0.1 -2.1684e-19 0.285714
1442 2 0.1 -2.1684e-19 0.285714
1443 3 0.15 0.05 0.321429
1444 4 0.15 0.05 0.321429
1445 5 0.1 0.05 0.321429
1446 6 0.1 0.05 0.321429
1447 5 0.15 0 0.321429
1448 6 0.15 0 0.321429
1449 5 0.15 0.05 0.285714
1450 6 0.15 0.05 0.285714
1451 1 0.1 2.1684e-19 0.357143
1452 2 0.1 2.1684e-19 0.357143
1453 3 0.15 0.05 0.392857
1454 4 0.15 0.05 0.392857
1455 5 0.1 0.05 0.392857
1456 6 0.1 0.05 0.392857
1457 5 0.15 -2.1684e-19 0.392857
1458 6 0.15 -2.1684e-19 0.392857
1459 5 0.15 0.05 0.357143
1460 6 0.15 0.05 0.357143
1461 1 0.1 -4.33681e-19 0.428571
1462 2 0.1 -4.33681e-19 0.428571
1463 3 0.15 0.05 0.464286
1464 4 0.15 0.05 0.464286
1465 5 0.1 0.05 0.464286
1466 6 0.1 0.05 0.464286
1467 5 0.15 0 0.464286
1468 6 0.15 0 0.464286
1469 5 0.15 0.05 0.428571
1470 6 0.15 0.05 0.428571
1541 1 0.1 0.1 0
1542 2 0.1 0.1 0
1543 3 0.15 0.15 0.0357143
1544 4 0.15 0.15 0.0357143
1545 5 0.1 0.15 0.0357143
1546 6 0.1 0.15 0.0357143
1547 5 0.15 0.1 0.0357143
1548 6 0.15 0.1 0.0357143
1549 5 0.15 0.15 0
1550 6 0.15 0.15 0
1551 1 0.1 0.1 0.0714286
1552 2 0.1 0.1 0.0714286
1553 3 0.15 0.15 0.107143
1554 4 0.15 0.15 0.107143
1555 5 0.1 0.15 0.107143
1556 6 0.1 0.15 0.107143
1557 5 0.15 0.1 0.107143
1558 6 0.15 0.1 0.107143
1559 5 0.15 0.15 0.0714286
1560 6 0.15 0.15 0.0714286
1561 1 0.1 0.1 0.142857
1562 2 0.1 0.1 0.142857
1563 3 0.15 0.15 0.178571
1564 4 0.15 0.15 0.178571
1565 5 0.1 0.15 0.178571
1566 6 0.1 0.15 0.178571
1567 5 0.15 0.1 0.178571
1568 6 0.15 0.1 0.178571
1569 5 0.15 0.15 0.142857
1570 6 0.15 0.15 0.142857
1571 1 0.1 0.1 0.214286
1572 2 0.1 0.1 0.214286
1573 3 0.15 0.15 0.25
1574 4 0.15 0.15 0.25
1575 5 0.1 0.15 0.25
1576 6 0.1 0.15 0.25
1577 5 0.15 0.1 0.25
1578 6 0.15 0.1 0.25
1579 5 0.15 0.15 0.214286
1580 6 0.15 0.15 0.214286
1581 1 0.1 0.1 0.285714
1582 2 0.1 0.1 0.285714
1583 3 0.15 0.15 0.321429
1584 4 0.15 0.15 0.321429
1585 5 0.1 0.15 0.321429
1586 6 0.1 0.15 0.321429
1587 5 0.15 0.1 0.321429
1588 6 0.15 0.1 0.321429
1589 5 0.15 0.15 0.285714
1590 6 0.15 0.15 0.285714
1591 1 0.1 0.1 0.357143
1592 2 0.1 0.1 0.357143
1593 3 0.15 0.15 0.392857
1594 4 0.15 0.15 0.392857
1595 5 0.1 0.15 0.392857
1596 6 0.1 0.15 0.392857
1597 5 0.15 0.1 0.392857
1598 6 0.15 0.1 0.392857
1599 5 0.15 0.15 0.357143
1600 6 0.15 0.15 0.357143
1601 1 0.1 0.1 0.428571
1602 2 0.1 0.1 0.428571
1603 3 0.15 0.15 0.464286
1604 4 0.15 0.15 0.464286
1605 5 0.1 0.15 0.464286
1606 6 0.1 0.15 0.464286
1607 5 0.15 0.1 0.464286
1608 6 0.15 0.1 0.464286
1609 5 0.15 0.15 0.428571
1610 6 0.15 0.15 0.428571
1681 1 0.1 0.2 0
1682 2 0.1 0.2 0
1683 3 0.15 0.25 0.0357143
1684 4 0.15 0.25 0.0357143
1685 5 0.1 0.25 0.0357143
1686 6 0.1 0.25 0.0357143
1687 5 0.15 0.2 0.0357143
1688 6 0.15 0.2 0.0357143
1689 5 0.15 0.25 0
1690 6 0.15 0.25 0
1691 1 0.1 0.2 0.0714286
1692 2 0.1 0.2 0.0714286
1693 3 0.15 0.25 0.107143
1694 4 0.15 0.25 0.107143
1695 5 0.1 0.25 0.107143
1696 6 0.1 0.25 0.107143
1697 5 0.15 0.2 0.107143
1698 6 0.15 0.2 0.107143
1699 5 0.15 0.25 0.0714286
1700 6 0.15 0.25 0.0714286
1701 1 0.1 0.2 0.142857
1702 2 0.1 0.2 0.142857
1703 3 0.15 0.25 0.178571
1704 4 0.15 0.25 0.178571
1705 5 0.1 0.25 0.178571
1706 6 0.1 0.25 0.178571
1707 5 0.15 0.2 0.178571
1708 6 0.15 0.2 0.178571
1709 5 0.15 0.25 0.142857
1710 6 0.15 0.25 0.142857
1711 1 0.1 0.2 0.214286
1712 2 0.1 0.2 0.214286
1713 3 0.15 0.25 0.25
1714 4 0.15 0.25 0.25
1715 5 0.1 0.25 0.25
1716 6 0.1 0.25 0.25
1717 5 0.15 0.2 0.25
1718 6 0.15 0.2 0.25
1719 5 0.15 0.25 0.214286
1720 6 0.15 0.25 0.214286
1721 1 0.1 0.2 0.285714
1722 2 0.1 0.2 0.285714
1723 3 0.15 0.25 0.321429
1724 4 0.15 0.25 0.321429
1725 5 0.1 0.25 0.321429
1726 6 0.1 0.25 0.321429
1727 5 0.15 0.2 0.321429
1728 6 0.15 0.2 0.321429
1729 5 0.15 0.25 0.285714
1730 6 0.15 0.25 0.285714
1731 1 0.1 0.2 0.357143
1732 2 0.1 0.2 0.357143
1733 3 0.15 0.25 0.392857
1734 4 0.15 0.25 0.392857
1735 5 0.1 0.25 0.392857
1736 6 0.1 0.25 0.392857
1737 5 0.15 0.2 0.392857
1738 6 0.15 0.2 0.392857
1739 5 0.15 0.25 0.357143
1740 6 0.15 0.25 0.357143
1741 1 0.1 0.2 0.428571
1742 2 0.1 0.2 0.428571
1743 3 0.15 0.25 0.464286
1744 4 0.15 0.25 0.464286
1745 5 0.1 0.25 0.464286
1746 6 0.1 0.25 0.464286
1747 5 0.15 0.2 0.464286
1748 6 0.15 0.2 0.464286
1749 5 0.15 0.25 0.428571
1750 6 0.15 0.25 0.428571
1821 1 0.1 0.3 0
1822 2 0.1 0.3 0
1823 3 0.15 0.35 0.0357143
1824 4 0.15 0.35 0.0357143
1825 5 0.1 0.35 0.0357143
1826 6 0.1 0.35 0.0357143
1827 5 0.15 0.3 0.0357143
1828 6 0.15 0.3 0.0357143
1829 5 0.15 0.35 0
1830 6 0.15 0.35 0
1831 1 0.1 0.3 0.0714286
1832 2 0.1 0.3 0.0714286
1833 3 0.15 0.35 0.107143
1834 4 0.15 0.35 0.107143
1835 5 0.1 0.35 0.107143
1836 6 0.1 0.35 0.107143
1837 5 0.15 0.3 0.107143
1838 6 0.15 0.3 0.107143
1839 5 0.15 0.35 0.0714286
1840 6 0.15 0.35 0.0714286
1841 1 0.1 0.3 0.142857
1842 2 0.1 0.3 0.142857
1843 3 0.15 0.35 0.178571
1844 4 0.15 0.35 0.178571
1845 5 0.1 0.35 0.178571
1846 6 0.1 0.35 0.178571
1847 5 0.15 0.3 0.178571
1848 6 0.15 0.3 0.178571
1849 5 0.15 0.35 0.142857
1850 6 0.15 0.35 0.142857
1851 1 0.1 0.3 0.214286
1852 2 0.1 0.3 0.214286
1853 3 0.15 0.35 0.25
1854 4 0.15 0.35 0.25
1855 5 0.1 0.35 0.25
1856 6 0.1 0.35 0.25
1857 5 0.15 0.3 0.25
1858 6 0.15 0.3 0.25
1859 5 0.15 0.35 0.214286
1860 6 0.15 0.35 0.214286
1861 1 0.1 0.3 0.285714
1862 2 0.1 0.3 0.285714
1863 3 0.15 0.35 0.321429
1864 4 0.15 0.35 0.321429
1865 5 0.1 0.35 0.321429
1866 6 0.1 0.35 0.321429
1867 5 0.15 0.3 0.321429
1868 6 0.15 0.3 0.321429
1869 5 0.15 0.35 0.285714
1870 6 0.15 0.35 0.285714
1871 1 0.1 0.3 0.357143
1872 2 0.1 0.3 0.357143
1873 3 0.15 0.35 0.392857
1874 4 0.15 0.35 0.392857
1875 5 0.1 0.35 0.392857
1876 6 0.1 0.35 0.392857
1877 5 0.15 0.3 0.392857
1878 6 0.15 0.3 0.392857
1879 5 0.15 0.35 0.357143
1880 6 0.15 0.35 0.357143
1881 1 0.1 0.3 0.428571
1882 2 0.1 0.3 0.428571
1883 3 0.15 0.35 0.464286
1884 4 0.15 0.35 0.464286
1885 5 0.1 0.35 0.464286
1886 6 0.1 0.35 0.464286
1887 5 0.15 0.3 0.464286
1888 6 0.15 0.3 0.464286
1889 5 0.15 0.35 0.428571
1890 6 0.15 0.35 0.428571
1961 1 0.1 0.4 0
1962 2 0.1 0.4 0
1963 3 0.15 0.45 0.0357143
1964 4 0.15 0.45 0.0357143
1965 5 0.1 0.45 0.0357143
1966 6 0.1 0.45 0.0357143
1967 5 0.15 0.4 0.0357143
1968 6 0.15 0.4 0.0357143
1969 5 0.15 0.45 0
1970 6 0.15 0.45 0
1971 1 0.1 0.4 0.0714286
1972 2 0.1 0.4 0.0714286
1973 3 0.15 0.45 0.107143
1974 4 0.15 0.45 0.107143
1975 5 0.1 0.45 0.107143
1976 6 0.1 0.45 0.107143
1977 5 0.15 0.4 0.107143
1978 6 0.15 0.4 0.107143
1979 5 0.15 0.45 0.0714286
1980 6 0.15 0.45 0.0714286
1981 1 0.1 0.4 0.142857
1982 2 0.1 0.4 0.142857
1983 3 0.15 0.45 0.178571
1984 4 0.15 0.45 0.178571
1985 5 0.1 0.45 0.178571
1986 6 0.1 0.45 0.178571
1987 5 0.15 0.4 0.178571
1988 6 0.15 0.4 0.178571
1989 5 0.15 0.45 0.142857
1990 6 0.15 0.45 0.142857
1991 1 0.1 0.4 0.214286
1992 2 0.1 0.4 0.214286
1993 3 0.15 0.45 0.25
1994 4 0.15 0.45 0.25
1995 5 0.1 0.45 0.25
1996 6 0.1 0.45 0.25
1997 5 0.15 0.4 0.25
1998 6 0.15 0.4 0.25
1999 5 0.15 0.45 0.214286
2000 6 0.15 0.45 0.214286
2001 1 0.1 0.4 0.285714
2002 2 0.1 0.4 0.285714
2003 3 0.15 0.45 0.321429
2004 4 0.15 0.45 0.321429
2005 5 0.1 0.45 0.321429
2006 6 0.1 0.45 0.321429
2007 5 0.15 0.4 0.321429
2008 6 0.15 0.4 0.321429
2009 5 0.15 0.45 0.285714
2010 6 0.15 0.45 0.285714
2011 1 0.1 0.4 0.357143
2012 2 0.1 0.4 0.357143
2013 3 0.15 0.45 0.392857
2014 4 0.15 0.45 0.392857
2015 5 0.1 0.45 0.392857
2016 6 0.1 0.45 0.392857
2017 5 0.15 0.4 0.392857
2018 6 0.15 0.4 0.392857
2019 5 0.15 0.45 0.357143
2020 6 0.15 0.45 0.357143
2021 1 0.1 0.4 0.428571
2022 2 0.1 0.4 0.428571
2023 3 0.15 0.45 0.464286
2024 4 0.15 0.45 0.464286
2025 5 0.1 0.45 0.464286
2026 6 0.1 0.45 0.464286
2027 5 0.15 0.4 0.464286
2028 6 0.15 0.4 0.464286
2029 5 0.15 0.45 0.428571
2030 6 0.15 0.45 0.428571
2801 1 0.2 0 0
2802 2 0.2 0 0
2803 3 0.25 0.05 0.0357143
2804 4 0.25 0.05 0.0357143
2805 5 0.2 0.05 0.0357143
2806 6 0.2 0.05 0.0357143
2807 5 0.25 -2.71051e-20 0.0357143
2808 6 0.25 -2.71051e-20 0.0357143
2809 5 0.25 0.05 0
2810 6 0.25 0.05 0
2811 1 0.2 -5.42101e-20 0.0714286
2812 2 0.2 -5.42101e-20 0.0714286
2813 3 0.25 0.05 0.107143
2814 4 0.25 0.05 0.107143
2815 5 0.2 0.05 0.107143
2816 6 0.2 0.05 0.107143
2817 5 0.25 -1.0842e-19 0.107143
2818 6 0.25 -1.0842e-19 0.107143
2819 5 0.25 0.05 0.0714286
2820 6 0.25 0.05 0.0714286
2821 1 0.2 -1.0842e-19 0.142857
2822 2 0.2 -1.0842e-19 0.142857
2823 3 0.25 0.05 0.178571
2824 4 0.25 0.05 0.178571
2825 5 0.2 0.05 0.178571
2826 6 0.2 0.05 0.178571
2827 5 0.25 1.0842e-19 0.178571
2828 6 0.25 1.0842e-19 0.178571
2829 5 0.25 0.05 0.142857
2830 6 0.25 0.05 0.142857
2831 1 0.2 -2.1684e-19 0.214286
2832 2 0.2 -2.1684e-19 0.214286
2833 3 0.25 0.05 0.25
2834 4 0.25 0.05 0.25
2835 5 0.2 0.05 0.25
2836 6 0.2 0.05 0.25
2837 5 0.25 -1.0842e-19 0.25
2838 6 0.25 -1.0842e-19 0.25
2839 5 0.25 0.05 0.214286
2840 6 0.25 0.05 0.214286
2841 1 0.2 -2.1684e-19 0.285714
2842 2 0.2 -2.1684e-19 0.285714
2843 3 0.25 0.05 0.321429
2844 4 0.25 0.05 0.321429
2845 5 0.2 0.05 0.321429
2846 6 0.2 0.05 0.321429
2847 5 0.25 0 0.321429
2848 6 0.25 0 0.321429
2849 5 0.25 0.05 0.285714
2850 6 0.25 0.05 0.285714
2851 1 0.2 2.1684e-19 0.357143
2852 2 0.2 2.1684e-19 0.357143
2853 3 0.25 0.05 0.392857
2854 4 0.25 0.05 0.392857
2855 5 0.2 0.05 0.392857
2856 6 0.2 0.05 0.392857
2857 5 0.25 -2.1684e-19 0.392857
2858 6 0.25 -2.1684e-19 0.392857
2859 5 0.25 0.05 0.357143
2860 6 0.25 0.05 0.357143
2861 1 0.2 -4.33681e-19 0.428571
2862 2 0.2 -4.33681e-19 0.428571
2863 3 0.25 0.05 0.464286
2864 4 0.25 0.05 0.464286
2865 5 0.2 0.05 0.464286
2866 6 0.2 0.05 0.464286
2867 5 0.25 0 0.464286
2868 6 0.25 0 0.464286
2869 5 0.25 0.05 0.428571
2870 6 0.25 0.05 0.428571
2941 1 0.2 0.1 0
2942 2 0.2 0.1 0
2943 3 0.25 0.15 0.0357143
2944 4 0.25 0.15 0.0357143
2945 5 0.2 0.15 0.0357143
2946 6 0.2 0.15 0.0357143
2947 5 0.25 0.1 0.0357143
2948 6 0.25 0.1 0.0357143
2949 5 0.25 0.15 0
2950 6 0.25 0.15 0
2951 1 0.2 0.1 0.0714286
2952 2 0.2 0.1 0.0714286
2953 3 0.25 0.15 0.107143
2954 4 0.25 0.15 0.107143
2955 5 0.2 0.15 0.107143
2956 6 0.2 0.15 0.107143
2957 5 0.25 0.1 0.107143
2958 6 0.25 0.1 0.107143
2959 5 0.25 0.15 0.0714286
2960 6 0.25 0.15 0.0714286
2961 1 0.2 0.1 0.142857
2962 2 0.2 0.1 0.142857
2963 3 0.25 0.15 0.178571
2964 4 0.25 0.15 0.178571
2965 5 0.2 0.15 0.178571
2966 6 0.2 0.15 0.178571
2967 5 0.25 0.1 0.178571
2968 6 0.25 0.1 0.178571
2969 5 0.25 0.15 0.142857
2970 6 0.25 0.15 0.142857
2971 1 0.2 0.1 0.214286
2972 2 0.2 0.1 0.214286
2973 3 0.25 0.15 0.25
2974 4 0.25 0.15 0.25
2975 5 0.2 0.15 0.25
2976 6 0.2 0.15 0.25
2977 5 0.25 0.1 0.25
2978 6 0.25 0.1 0.25
2979 5 0.25 0.15 0.214286
2980 6 0.25 0.15 0.214286
2981 1 0.2 0.1 0.285714
2982 2 0.2 0.1 0.285714
2983 3 0.25 0.15 0.321429
2984 4 0.25 0.15 0.321429
2985 5 0.2 0.15 0.321429
2986 6 0.2 0.15 0.321429
2987 5 0.25 0.1 0.321429
2988 6 0.25 0.1 0.321429
2989 5 0.25 0.15 0.285714
2990 6 0.25 0.15 0.285714
2991 1 0.2 0.1 0.357143
2992 2 0.2 0.1 0.357143
2993 3 0.25 0.15 0.392857
2994 4 0.25 0.15 0.392857
2995 5 0.2 0.15 0.392857
2996 6 0.2 0.15 0.392857
2997 5 0.25 0.1 0.392857
2998 6 0.25 0.1 0.392857
2999 5 0.25 0.15 0.357143
3000 6 0.25 0.15 0.357143
3001 1 0.2 0.1 0.428571
3002 2 0.2 0.1 0.428571
3003 3 0.25 0.15 0.464286
3004 4 0.25 0.15 0.464286
3005 5 0.2 0.15 0.464286
3006 6 0.2 0.15 0.464286
3007 5 0.25 0.1 0.464286
3008 6 0.25 0.1 0.464286
3009 5 0.25 0.15 0.428571
3010 6 0.25 0.15 0.428571
3081 1 0.2 0.2 0
3082 2 0.2 0.2 0
3083 3 0.25 0.25 0.0357143
3084 4 0.25 0.25 0.0357143
3085 5 0.2 0.25 0.0357143
3086 6 0.2 0.25 0.0357143
3087 5 0.25 0.2 0.0357143
3088 6 0.25 0.2 0.0357143
3089 5 0.25 0.25 0
3090 6 0.25 0.25 0
3091 1 0.2 0.2 0.0714286
3092 2 0.2 0.2 0.0714286
3093 3 0.25 0.25 0.107143
3094 4 0.25 0.25 0.107143
3095 5 0.2 0.25 0.107143
3096 6 0.2 0.25 0.107143
3097 5 0.25 0.2 0.107143
3098 6 0.25 0.2 0.107143
3099 5 0.25 0.25 0.0714286
3100 6 0.25 0.25 0.0714286
3101 1 0.2 0.2 0.142857
3102 2 0.2 0.2 0.142857
3103 3 0.25 0.25 0.178571
3104 4 0.25 0.25 0.178571
3105 5 0.2 0.25 0.178571
3106 6 0.2 0.25 0.178571
3107 5 0.25 0.2 0.178571
3108 6 0.25 0.2 0.178571
3109 5 0.25 0.25 0.142857
3110 6 0.25 0.25 0.142857
3111 1 0.2 0.2 0.214286
3112 2 0.2 0.2 0.214286
3113 3 0.25 0.25 0.25
3114 4 0.25 0.25 0.25
3115 5 0.2 0.25 0.25
3116 6 0.2 0.25 0.25
3117 5 0.25 0.2 0.25
3118 6 0.25 0.2 0.25
3119 5 0.25 0.25 0.214286
3120 6 0.25 0.25 0.214286
3121 1 0.2 0.2 0.285714
3122 2 0.2 0.2 0.285714
3123 3 0.25 0.25 0.321429
3124 4 0.25 0.25 0.321429
3125 5 0.2 0.25 0.321429
3126 6 0.2 0.25 0.321429
3127 5 0.25 0.2 0.321429
3128 6 0.25 0.2 0.321429
3129 5 0.25 0.25 0.285714
3130 6 0.25 0.25 0.285714
3131 1 0.2 0.2 0.357143
3132 2 0.2 0.2 0.357143
3133 3 0.25 0.25 0.392857
3134 4 0.25 0.25 0.392857
3135 5 0.2 0.25 0.392857
3136 6 0.2 0.25 0.392857
3137 5 0.25 0.2 0.392857
3138 6 0.25 0.2 0.392857
3139 5 0.25 0.25 0.357143
3140 6 0.25 0.25 0.357143
3141 1 0.2 0.2 0.428571
3142 2 0.2 0.2 0.428571
3143 3 0.25 0.25 0.464286
3144 4 0.25 0.25 0.464286
3145 5 0.2 0.25 0.464286
3146 6 0.2 0.25 0.464286
3147 5 0.25 0.2 0.464286
3148 6 0.25 0.2 0.464286
3149 5 0.25 0.25 0.428571
3150 6 0.25 0.25 0.428571
3221 1 0.2 0.3 0
3222 2 0.2 0.3 0
3223 3 0.25 0.35 0.0357143
3224 4 0.25 0.35 0.0357143
3225 5 0.2 0.35 0.0357143
3226 6 0.2 0.35 0.0357143
3227 5 0.25 0.3 0.0357143
3228 6 0.25 0.3 0.0357143
3229 5 0.25 0.35 0
3230 6 0.25 0.35 0
3231 1 0.2 0.3 0.0714286
3232 2 0.2 0.3 0.0714286
3233 3 0.25 0.35 0.107143
3234 4 0.25 0.35 0.107143
3235 5 0.2 0.35 0.107143
3236 6 0.2 0.35 0.107143
3237 5 0.25 0.3 0.107143
3238 6 0.25 0.3 0.107143
3239 5 0.25 0.35 0.0714286
3240 6 0.25 0.35 0.0714286
3241 1 0.2 0.3 0.142857
3242 2 0.2 0.3 0.142857
3243 3 0.25 0.35 0.178571
3244 4 0.25 0.35 0.178571
3245 5 0.2 0.35 0.178571
3246 6 0.2 0.35 0.178571
3247 5 0.25 0.3 0.178571
3248 6 0.25 0.3 0.178571
3249 5 0.25 0.35 0.142857
3250 6 0.25 0.35 0.142857
3251 1 0.2 0.3 0.214286
3252 2 0.2 0.3 0.214286
3253 3 0.25 0.35 0.25
3254 4 0.25 0.35 0.25
3255 5 0.2 0.35 0.25
3256 6 0.2 0.35 0.25
3257 5 0.25 0.3 0.25
3258 6 0.25 0.3 0.25
3259 5 0.25 0.35 0.214286
3260 6 0.25 0.35 0.214286
3261 1 0.2 0.3 0.285714
3262 2 0.2 0.3 0.285714
3263 3 0.25 0.35 0.321429
3264 4 0.25 0.35 0.321429
3265 5 0.2 0.35 0.321429
3266 6 0.2 0.35 0.321429
3267 5 0.25 0.3 0.321429
3268 6 0.25 0.3 0.321429
3269 5 0.25 0.35 0.285714
3270 6 0.25 0.35 0.285714
3271 1 0.2 0.3 0.357143
3272 2 0.2 0.3 0.357143
3273 3 0.25 0.35 0.392857
3274 4 0.25 0.35 0.392857
3275 5 0.2 0.35 0.392857
3276 6 0.2 0.35 0.392857
3277 5 0.25 0.3 0.392857
3278 6 0.25 0.3 0.392857
3279 5 0.25 0.35 0.357143
3280 6 0.25 0.35 0.357143
3281 1 0.2 0.3 0.428571
3282 2 0.2 0.3 0.428571
3283 3 0.25 0.35 0.464286
3284 4 0.25 0.35 0.464286
3285 5 0.2 0.35 0.464286
3286 6 0.2 0.35 0.464286
3287 5 0.25 0.3 0.464286
3288 6 0.25 0.3 0.464286
3289 5 0.25 0.35 0.428571
3290 6 0.25 0.35 0.428571
3361 1 0.2 0.4 0
3362 2 0.2 0.4 0
3363 3 0.25 0.45 0.0357143
3364 4 0.25 0.45 0.0357143
3365 5 0.2 0.45 0.0357143
3366 6 0.2 0.45 0.0357143
3367 5 0.25 0.4 0.0357143
3368 6 0.25 0.4 0.0357143
3369 5 0.25 0.45 0
3370 6 0.25 0.45 0
3371 1 0.2 0.4 0.0714286
3372 2 0.2 0.4 0.0714286
3373 3 0.25 0.45 0.107143
3374 4 0.25 0.45 0.107143
3375 5 0.2 0.45 0.107143
3376 6 0.2 0.45 0.107143
3377 5 0.25 0.4 0.107143
3378 6 0.25 0.4 0.107143
3379 5 0.25 0.45 0.0714286
3380 6 0.25 0.45 0.0714286
3381 1 0.2 0.4 0.142857
3382 2 0.2 0.4 0.142857
3383 3 0.25 0.45 0.178571
3384 4 0.25 0.45 0.178571
3385 5 0.2 0.45 0.178571
3386 6 0.2 0.45 0.178571
3387 5 0.25 0.4 0.178571
3388 6 0.25 0.4 0.178571
3389 5 0.25 0.45 0.142857
3390 6 0.25 0.45 0.142857
3391 1 0.2 0.4 0.214286
3392 2 0.2 0.4 0.214286
3393 3 0.25 0.45 0.25
3394 4 0.25 0.45 0.25
3395 5 0.2 0.45 0.25
3396 6 0.2 0.45 0.25
3397 5 0.25 0.4 0.25
3398 6 0.25 0.4 0.25
3399 5 0.25 0.45 0.214286
3400 6 0.25 0.45 0.214286
3401 1 0.2 0.4 0.285714
3402 2 0.2 0.4 0.285714
3403 3 0.25 0.45 0.321429
3404 4 0.25 0.45 0.321429
3405 5 0.2 0.45 0.321429
3406 6 0.2 0.45 0.321429
3407 5 0.25 0.4 0.321429
3408 6 0.25 0.4 0.321429
3409 5 0.25 0.45 0.285714
3410 6 0.25 0.45 0.285714
3411 1 0.2 0.4 0.357143
3412 2 0.2 0.4 0.357143
3413 3 0.25 0.45 0.392857
3414 4 0.25 0.45 0.392857
3415 5 0.2 0.45 0.392857
3416 6 0.2 0.45 0.392857
3417 5 0.25 0.4 0.392857
3418 6 0.25 0.4 0.392857
3419 5 0.25 0.45 0.357143
3420 6 0.25 0.45 0.357143
3421 1 0.2 0.4 0.428571
3422 2 0.2 0.4 0.428571
3423 3 0.25 0.45 0.464286
3424 4 0.25 0.45 0.464286
3425 5 0.2 0.45 0.464286
3426 6 0.2 0.45 0.464286
3427 5 0.25 0.4 0.464286
3428 6 0.25 0.4 0.464286
3429 5 0.25 0.45 0.428571
3430 6 0.25 0.45 0.428571
4201 1 0.3 0 0
4202 2 0.3 0 0
4203 3 0.35 0.05 0.0357143
4204 4 0.35 0.05 0.0357143
4205 5 0.3 0.05 0.0357143
4206 6 0.3 0.05 0.0357143
4207 5 0.35 -2.71051e-20 0.0357143
4208 6 0.35 -2.71051e-20 0.0357143
4209 5 0.35 0.05 0
4210 6 0.35 0.05 0
4211 1 0.3 -5.42101e-20 0.0714286
4212 2 0.3 -5.42101e-20 0.0714286
4213 3 0.35 0.05 0.107143
4214 4 0.35 0.05 0.107143
4215 5 0.3 0.05 0.107143
4216 6 0.3 0.05 0.107143
4217 5 0.35 -1.0842e-19 0.107143
4218 6 0.35 -1.0842e-19 0.107143
4219 5 0.35 0.05 0.0714286
4220 6 0.35 0.05 0.0714286
4221 1 0.3 -1.0842e-19 0.142857
4222 2 0.3 -1.0842e-19 0.142857
4223 3 0.35 0.05 0.178571
4224 4 0.35 0.05 0.178571
4225 5 0.3 0.05 0.178571
4226 6 0.3 0.05 0.178571
4227 5 0.35 1.0842e-19 0.178571
4228 6 0.35 1.0842e-19 0.178571
4229 5 0.35 0.05 0.142857
4230 6 0.35 0.05 0.142857
4231 1 0.3 -2.1684e-19 0.214286
4232 2 0.3 -2.1684e-19 0.214286
4233 3 0.35 0.05 0.25
4234 4 0.35 0.05 0.25
4235 5 0.3 0.05 0.25
4236 6 0.3 0.05 0.25
4237 5 0.35 -1.0842e-19 0.25
4238 6 0.35 -1.0842e-19 0.25
4239 5 0.35 0.05 0.214286
4240 6 0.35 0.05 0.214286
4241 1 0.3 -2.1684e-19 0.285714
4242 2 0.3 -2.1684e-19 0.285714
4243 3 0.35 0.05 0.321429
4244 4 0.35 0.05 0.321429
4245 5 0.3 0.05 0.321429
4246 6 0.3 0.05 0.321429
4247 5 0.35 0 0.321429
4248 6 0.35 0 0.321429
4249 5 0.35 0.05 0.285714
4250 6 0.35 0.05 0.285714
4251 1 0.3 2.1684e-19 0.357143
4252 2 0.3 2.1684e-19 0.357143
4253 3 0.35 0.05 0.392857
4254 4 0.35 0.05 0.392857
4255 5 0.3 0.05 0.392857
4256 6 0.3 0.05 0.392857
4257 5 0.35 -2.1684e-19 0.392857
4258 6 0.35 -2.1684e-19 0.392857
4259 5 0.35 0.05 0.357143
4260 6 0.35 0.05 0.357143
4261 1 0.3 -4.33681e-19 0.428571
4262 2 0.3 -4.33681e-19 0.428571
4263 3 0.35 0.05 0.464286
4264 4 0.35 0.05 0.464286
4265 5 0.3 0.05 0.464286
4266 6 0.3 0.05 0.464286
4267 5 0.35 0 0.464286
4268 6 0.35 0 0.464286
4269 5 0.35 0.05 0.428571
4270 6 0.35 0.05 0.428571
4341 1 0.3 0.1 0
4342 2 0.3 0.1 0
4343 3 0.35 0.15 0.0357143
4344 4 0.35 0.15 0.0357143
4345 5 0.3 0.15 0.0357143
4346 6 0.3 0.15 0.0357143
4347 5 0.35 0.1 0.0357143
4348 6 0.35 0.1 0.0357143
4349 5 0.35 0.15 0
4350 6 0.35 0.15 0
4351 1 0.3 0.1 0.0714286
4352 2 0.3 0.1 0.0714286
4353 3 0.35 0.15 0.107143
4354 4 0.35 0.15 0.107143
4355 5 0.3 0.15 0.107143
4356 6 0.3 0.15 0.107143
4357 5 0.35 0.1 0.107143
4358 6 0.35 0.1 0.107143
4359 5 0.35 0.15 0.0714286
4360 6 0.35 0.15 0.0714286
4361 1 0.3 0.1 0.142857
4362 2 0.3 0.1 0.142857
4363 3 0.35 0.15 0.178571
4364 4 0.35 0.15 0.178571
4365 5 0.3 0.15 0.178571
4366 6 0.3 0.15 0.178571
4367 5 0.35 0.1 0.178571
4368 6 0.35 0.1 0.178571
4369 5 0.35 0.15 0.142857
4370 6 0.35 0.15 0.142857
4371 1 0.3 0.1 0.214286
4372 2 0.3 0.1 0.214286
4373 3 0.35 0.15 0.25
4374 4 0.35 0.15 0.25
4375 5 0.3 0.15 0.25
4376 6 0.3 0.15 0.25
4377 5 0.35 0.1 0.25
4378 6 0.35 0.1 0.25
4379 5 0.35 0.15 0.214286
4380 6 0.35 0.15 0.214286
4381 1 0.3 0.1 0.285714
4382 2 0.3 0.1 0.285714
4383 3 0.35 0.15 0.321429
4384 4 0.35 0.15 0.321429
4385 5 0.3 0.15 0.321429