ITEM: TIMESTEP
0
ITEM: NUMBER OF ATOMS
10000
ITEM: BOX BOUNDS xy xz yz pp pp pp
0.0000000000000000e+00 4.0365952783984007e+01 1.3297639199200001e-01
0.0000000000000000e+00 4.0232976391992004e+01 1.3297639199200001e-01
0.0000000000000000e+00 4.0100000000000001e+01 1.3297639199200001e-01
ITEM: ATOMS id type f_AVE_ATOM[1] f_AVE_ATOM[2] f_AVE_ATOM[3] 
1 1 0 0 0 
2 2 0 0 0 
3 3 0 0 0 
4 4 0 0 0 
5436 6 0 0 0 
5435 5 0 0 0 
5446 6 0 0 0 
5445 5 0 0 0 
4260 6 0 0 0 
4259 5 0 0 0 
11 1 0 0 0 
12 2 0 0 0 
13 3 0 0 0 
14 4 0 0 0 
5426 6 0 0 0 
5425 5 0 0 0 
5006 6 0 0 0 
5005 5 0 0 0 
19 5 0 0 0 
20 6 0 0 0 
21 1 0 0 0 
22 2 0 0 0 
23 3 0 0 0 
24 4 0 0 0 
5416 6 0 0 0 
5415 5 0 0 0 
4548 6 0 0 0 
4547 5 0 0 0 
29 5 0 0 0 
30 6 0 0 0 
31 1 0 0 0 
32 2 0 0 0 
33 3 0 0 0 
34 4 0 0 0 
5406 6 0 0 0 
5405 5 0 0 0 
4538 6 0 0 0 
4537 5 0 0 0 
39 5 0 0 0 
40 6 0 0 0 
41 1 0 0 0 
42 2 0 0 0 
43 3 0 0 0 
44 4 0 0 0 
5346 6 0 0 0 
5345 5 0 0 0 
4528 6 0 0 0 
4527 5 0 0 0 
49 5 0 0 0 
50 6 0 0 0 
101 1 0 0 0 
102 2 0 0 0 
103 3 0 0 0 
104 4 0 0 0 
5336 6 0 0 0 
5335 5 0 0 0 
107 5 0 0 0 
108 6 0 0 0 
4160 6 0 0 0 
4359 5 0 0 0 
111 1 0 0 0 
112 2 0 0 0 
113 3 0 0 0 
114 4 0 0 0 
5326 6 0 0 0 
5325 5 0 0 0 
117 5 0 0 0 
118 6 0 0 0 
119 5 0 0 0 
120 6 0 0 0 
121 1 0 0 0 
122 2 0 0 0 
123 3 0 0 0 
124 4 0 0 0 
5316 6 0 0 0 
5315 5 0 0 0 
127 5 0 0 0 
128 6 0 0 0 
129 5 0 0 0 
130 6 0 0 0 
131 1 0 0 0 
132 2 0 0 0 
133 3 0 0 0 
134 4 0 0 0 
5306 6 0 0 0 
5305 5 0 0 0 
137 5 0 0 0 
138 6 0 0 0 
139 5 0 0 0 
140 6 0 0 0 
141 1 0 0 0 
142 2 0 0 0 
143 3 0 0 0 
144 4 0 0 0 
5246 6 0 0 0 
5245 5 0 0 0 
147 5 0 0 0 
148 6 0 0 0 
149 5 0 0 0 
150 6 0 0 0 
201 1 0 0 0 
202 2 0 0 0 
203 3 0 0 0 
204 4 0 0 0 
5236 6 0 0 0 
5235 5 0 0 0 
207 5 0 0 0 
208 6 0 0 0 
4360 6 0 0 0 
4159 5 0 0 0 
211 1 0 0 0 
212 2 0 0 0 
213 3 0 0 0 
214 4 0 0 0 
5226 6 0 0 0 
5225 5 0 0 0 
217 5 0 0 0 
218 6 0 0 0 
219 5 0 0 0 
220 6 0 0 0 
221 1 0 0 0 
222 2 0 0 0 
223 3 0 0 0 
224 4 0 0 0 
5216 6 0 0 0 
5215 5 0 0 0 
227 5 0 0 0 
228 6 0 0 0 
229 5 0 0 0 
230 6 0 0 0 
231 1 0 0 0 
232 2 0 0 0 
233 3 0 0 0 
234 4 0 0 0 
5206 6 0 0 0 
5205 5 0 0 0 
237 5 0 0 0 
238 6 0 0 0 
239 5 0 0 0 
240 6 0 0 0 
241 1 0 0 0 
242 2 0 0 0 
243 3 0 0 0 
244 4 0 0 0 
5146 6 0 0 0 
5145 5 0 0 0 
247 5 0 0 0 
248 6 0 0 0 
249 5 0 0 0 
250 6 0 0 0 
301 1 0 0 0 
302 2 0 0 0 
303 3 0 0 0 
304 4 0 0 0 
5136 6 0 0 0 
5135 5 0 0 0 
307 5 0 0 0 
308 6 0 0 0 
4060 6 0 0 0 
4059 5 0 0 0 
311 1 0 0 0 
312 2 0 0 0 
313 3 0 0 0 
314 4 0 0 0 
5126 6 0 0 0 
5125 5 0 0 0 
317 5 0 0 0 
318 6 0 0 0 
319 5 0 0 0 
320 6 0 0 0 
321 1 0 0 0 
322 2 0 0 0 
323 3 0 0 0 
324 4 0 0 0 
5116 6 0 0 0 
5115 5 0 0 0 
327 5 0 0 0 
328 6 0 0 0 
329 5 0 0 0 
330 6 0 0 0 
331 1 0 0 0 
332 2 0 0 0 
333 3 0 0 0 
334 4 0 0 0 
5106 6 0 0 0 
5105 5 0 0 0 
337 5 0 0 0 
338 6 0 0 0 
339 5 0 0 0 
340 6 0 0 0 
341 1 0 0 0 
342 2 0 0 0 
343 3 0 0 0 
344 4 0 0 0 
5046 6 0 0 0 
5045 5 0 0 0 
347 5 0 0 0 
348 6 0 0 0 
349 5 0 0 0 
350 6 0 0 0 
401 1 0 0 0 
402 2 0 0 0 
403 3 0 0 0 
404 4 0 0 0 
5036 6 0 0 0 
5035 5 0 0 0 
407 5 0 0 0 
408 6 0 0 0 
3460 6 0 0 0 
3459 5 0 0 0 
411 1 0 0 0 
412 2 0 0 0 
413 3 0 0 0 
414 4 0 0 0 
5026 6 0 0 0 
5025 5 0 0 0 
417 5 0 0 0 
418 6 0 0 0 
419 5 0 0 0 
420 6 0 0 0 
421 1 0 0 0 
422 2 0 0 0 
423 3 0 0 0 
424 4 0 0 0 
5016 6 0 0 0 
5015 5 0 0 0 
427 5 0 0 0 
428 6 0 0 0 
429 5 0 0 0 
430 6 0 0 0 
431 1 0 0 0 
432 2 0 0 0 
433 3 0 0 0 
434 4 0 0 0 
4518 6 0 0 0 
4517 5 0 0 0 
437 5 0 0 0 
438 6 0 0 0 
439 5 0 0 0 
440 6 0 0 0 
441 1 0 0 0 
442 2 0 0 0 
443 3 0 0 0 
444 4 0 0 0 
4508 6 0 0 0 
4507 5 0 0 0 
447 5 0 0 0 
448 6 0 0 0 
449 5 0 0 0 
450 6 0 0 0 
1001 1 0 0 0 
1002 2 0 0 0 
1003 3 0 0 0 
1004 4 0 0 0 
1005 5 0 0 0 
1006 6 0 0 0 
3548 6 0 0 0 
3547 5 0 0 0 
3360 6 0 0 0 
3359 5 0 0 0 
1011 1 0 0 0 
1012 2 0 0 0 
1013 3 0 0 0 
1014 4 0 0 0 
1015 5 0 0 0 
1016 6 0 0 0 
3538 6 0 0 0 
3537 5 0 0 0 
1019 5 0 0 0 
1020 6 0 0 0 
1021 1 0 0 0 
1022 2 0 0 0 
1023 3 0 0 0 
1024 4 0 0 0 
1025 5 0 0 0 
1026 6 0 0 0 
3528 6 0 0 0 
3527 5 0 0 0 
1029 5 0 0 0 
1030 6 0 0 0 
1031 1 0 0 0 
1032 2 0 0 0 
1033 3 0 0 0 
1034 4 0 0 0 
1035 5 0 0 0 
1036 6 0 0 0 
3518 6 0 0 0 
3517 5 0 0 0 
1039 5 0 0 0 
1040 6 0 0 0 
1041 1 0 0 0 
1042 2 0 0 0 
1043 3 0 0 0 
1044 4 0 0 0 
1045 5 0 0 0 
1046 6 0 0 0 
3508 6 0 0 0 
3507 5 0 0 0 
1049 5 0 0 0 
1050 6 0 0 0 
1101 1 0 0 0 
1102 2 0 0 0 
1103 3 0 0 0 
1104 4 0 0 0 
1105 5 0 0 0 
1106 6 0 0 0 
1107 5 0 0 0 
1108 6 0 0 0 
3260 6 0 0 0 
3259 5 0 0 0 
1111 1 0 0 0 
1112 2 0 0 0 
1113 3 0 0 0 
1114 4 0 0 0 
1115 5 0 0 0 
1116 6 0 0 0 
1117 5 0 0 0 
1118 6 0 0 0 
1119 5 0 0 0 
1120 6 0 0 0 
1121 1 0 0 0 
1122 2 0 0 0 
1123 3 0 0 0 
1124 4 0 0 0 
1125 5 0 0 0 
1126 6 0 0 0 
1127 5 0 0 0 
1128 6 0 0 0 
1129 5 0 0 0 
1130 6 0 0 0 
1131 1 0 0 0 
1132 2 0 0 0 
1133 3 0 0 0 
1134 4 0 0 0 
1135 5 0 0 0 
1136 6 0 0 0 
1137 5 0 0 0 
1138 6 0 0 0 
1139 5 0 0 0 
1140 6 0 0 0 
1141 1 0 0 0 
1142 2 0 0 0 
1143 3 0 0 0 
1144 4 0 0 0 
1145 5 0 0 0 
1146 6 0 0 0 
1147 5 0 0 0 
1148 6 0 0 0 
1149 5 0 0 0 
1150 6 0 0 0 
1201 1 0 0 0 
1202 2 0 0 0 
1203 3 0 0 0 
1204 4 0 0 0 
1205 5 0 0 0 
1206 6 0 0 0 
1207 5 0 0 0 
1208 6 0 0 0 
3160 6 0 0 0 
3159 5 0 0 0 
1211 1 0 0 0 
1212 2 0 0 0 
1213 3 0 0 0 
1214 4 0 0 0 
1215 5 0 0 0 
1216 6 0 0 0 
1217 5 0 0 0 
1218 6 0 0 0 
1219 5 0 0 0 
1220 6 0 0 0 
1221 1 0 0 0 
1222 2 0 0 0 
1223 3 0 0 0 
1224 4 0 0 0 
1225 5 0 0 0 
1226 6 0 0 0 
1227 5 0 0 0 
1228 6 0 0 0 
1229 5 0 0 0 
1230 6 0 0 0 
1231 1 0 0 0 
1232 2 0 0 0 
1233 3 0 0 0 
1234 4 0 0 0 
1235 5 0 0 0 
1236 6 0 0 0 
1237 5 0 0 0 
1238 6 0 0 0 
1239 5 0 0 0 
1240 6 0 0 0 
1241 1 0 0 0 
1242 2 0 0 0 
1243 3 0 0 0 
1244 4 0 0 0 
1245 5 0 0 0 
1246 6 0 0 0 
1247 5 0 0 0 
1248 6 0 0 0 
1249 5 0 0 0 
1250 6 0 0 0 
1301 1 0 0 0 
1302 2 0 0 0 
1303 3 0 0 0 
1304 4 0 0 0 
1305 5 0 0 0 
1306 6 0 0 0 
1307 5 0 0 0 
1308 6 0 0 0 
3060 6 0 0 0 
3059 5 0 0 0 
1311 1 0 0 0 
1312 2 0 0 0 
1313 3 0 0 0 
1314 4 0 0 0 
1315 5 0 0 0 
1316 6 0 0 0 
1317 5 0 0 0 
1318 6 0 0 0 
1319 5 0 0 0 
1320 6 0 0 0 
1321 1 0 0 0 
1322 2 0 0 0 
1323 3 0 0 0 
1324 4 0 0 0 
1325 5 0 0 0 
1326 6 0 0 0 
1327 5 0 0 0 
1328 6 0 0 0 
1329 5 0 0 0 
1330 6 0 0 0 
1331 1 0 0 0 
1332 2 0 0 0 
1333 3 0 0 0 
1334 4 0 0 0 
1335 5 0 0 0 
1336 6 0 0 0 
1337 5 0 0 0 
1338 6 0 0 0 
1339 5 0 0 0 
1340 6 0 0 0 
1341 1 0 0 0 
1342 2 0 0 0 
1343 3 0 0 0 
1344 4 0 0 0 
1345 5 0 0 0 
1346 6 0 0 0 
1347 5 0 0 0 
1348 6 0 0 0 
1349 5 0 0 0 
1350 6 0 0 0 
1401 1 0 0 0 
1402 2 0 0 0 
1403 3 0 0 0 
1404 4 0 0 0 
1405 5 0 0 0 
1406 6 0 0 0 
1407 5 0 0 0 
1408 6 0 0 0 
2460 6 0 0 0 
2459 5 0 0 0 
1411 1 0 0 0 
1412 2 0 0 0 
1413 3 0 0 0 
1414 4 0 0 0 
1415 5 0 0 0 
1416 6 0 0 0 
1417 5 0 0 0 
1418 6 0 0 0 
1419 5 0 0 0 
1420 6 0 0 0 
1421 1 0 0 0 
1422 2 0 0 0 
1423 3 0 0 0 
1424 4 0 0 0 
1425 5 0 0 0 
1426 6 0 0 0 
1427 5 0 0 0 
1428 6 0 0 0 
1429 5 0 0 0 
1430 6 0 0 0 
1431 1 0 0 0 
1432 2 0 0 0 
1433 3 0 0 0 
1434 4 0 0 0 
1435 5 0 0 0 
1436 6 0 0 0 
1437 5 0 0 0 
1438 6 0 0 0 
1439 5 0 0 0 
1440 6 0 0 0 
1441 1 0 0 0 
1442 2 0 0 0 
1443 3 0 0 0 
1444 4 0 0 0 
1445 5 0 0 0 
1446 6 0 0 0 
1447 5 0 0 0 
1448 6 0 0 0 
1449 5 0 0 0 
1450 6 0 0 0 
2001 1 0 0 0 
2002 2 0 0 0 
2003 3 0 0 0 
2004 4 0 0 0 
2005 5 0 0 0 
2006 6 0 0 0 
2548 6 0 0 0 
2547 5 0 0 0 
2360 6 0 0 0 
2359 5 0 0 0 
2011 1 0 0 0 
2012 2 0 0 0 
2013 3 0 0 0 
2014 4 0 0 0 
2015 5 0 0 0 
2016 6 0 0 0 
2538 6 0 0 0 
2537 5 0 0 0 
2019 5 0 0 0 
2020 6 0 0 0 
2021 1 0 0 0 
2022 2 0 0 0 
2023 3 0 0 0 
2024 4 0 0 0 
2025 5 0 0 0 
2026 6 0 0 0 
2528 6 0 0 0 
2527 5 0 0 0 
2029 5 0 0 0 
2030 6 0 0 0 
2031 1 0 0 0 
2032 2 0 0 0 
2033 3 0 0 0 
2034 4 0 0 0 
2035 5 0 0 0 
2036 6 0 0 0 
2518 6 0 0 0 
2517 5 0 0 0 
2039 5 0 0 0 
2040 6 0 0 0 
2041 1 0 0 0 
2042 2 0 0 0 
2043 3 0 0 0 
2044 4 0 0 0 
2045 5 0 0 0 
2046 6 0 0 0 
2508 6 0 0 0 
2507 5 0 0 0 
2049 5 0 0 0 
2050 6 0 0 0 
2101 1 0 0 0 
2102 2 0 0 0 
2103 3 0 0 0 
2104 4 0 0 0 
2105 5 0 0 0 
2106 6 0 0 0 
2107 5 0 0 0 
2108 6 0 0 0 
2260 6 0 0 0 
2259 5 0 0 0 
2111 1 0 0 0 
2112 2 0 0 0 
2113 3 0 0 0 
2114 4 0 0 0 
2115 5 0 0 0 
2116 6 0 0 0 
2117 5 0 0 0 
2118 6 0 0 0 
2119 5 0 0 0 
2120 6 0 0 0 
2121 1 0 0 0 
2122 2 0 0 0 
2123 3 0 0 0 
2124 4 0 0 0 
2125 5 0 0 0 
2126 6 0 0 0 
2127 5 0 0 0 
2128 6 0 0 0 
2129 5 0 0 0 
2130 6 0 0 0 
2131 1 0 0 0 
2132 2 0 0 0 
2133 3 0 0 0 
2134 4 0 0 0 
2135 5 0 0 0 
2136 6 0 0 0 
2137 5 0 0 0 
2138 6 0 0 0 
2139 5 0 0 0 
2140 6 0 0 0 
2141 1 0 0 0 
2142 2 0 0 0 
2143 3 0 0 0 
2144 4 0 0 0 
2145 5 0 0 0 
2146 6 0 0 0 
2147 5 0 0 0 
2148 6 0 0 0 
2149 5 0 0 0 
2150 6 0 0 0 
2201 1 0 0 0 
2202 2 0 0 0 
2203 3 0 0 0 
2204 4 0 0 0 
2205 5 0 0 0 
2206 6 0 0 0 
2207 5 0 0 0 
2208 6 0 0 0 
2160 6 0 0 0 
2159 5 0 0 0 
2211 1 0 0 0 
2212 2 0 0 0 
2213 3 0 0 0 
2214 4 0 0 0 
2215 5 0 0 0 
2216 6 0 0 0 
2217 5 0 0 0 
2218 6 0 0 0 
2219 5 0 0 0 
2220 6 0 0 0 
2221 1 0 0 0 
2222 2 0 0 0 
2223 3 0 0 0 
2224 4 0 0 0 
2225 5 0 0 0 
2226 6 0 0 0 
2227 5 0 0 0 
2228 6 0 0 0 
2229 5 0 0 0 
2230 6 0 0 0 
2231 1 0 0 0 
2232 2 0 0 0 
2233 3 0 0 0 
2234 4 0 0 0 
2235 5 0 0 0 
2236 6 0 0 0 
2237 5 0 0 0 
2238 6 0 0 0 
2239 5 0 0 0 
2240 6 0 0 0 
2241 1 0 0 0 
2242 2 0 0 0 
2243 3 0 0 0 
2244 4 0 0 0 
2245 5 0 0 0 
2246 6 0 0 0 
2247 5 0 0 0 
2248 6 0 0 0 
2249 5 0 0 0 
2250 6 0 0 0 
2301 1 0 0 0 
2302 2 0 0 0 
2303 3 0 0 0 
2304 4 0 0 0 
2305 5 0 0 0 
2306 6 0 0 0 
2307 5 0 0 0 
2308 6 0 0 0 
2060 6 0 0 0 
2059 5 0 0 0 
2311 1 0 0 0 
2312 2 0 0 0 
2313 3 0 0 0 
2314 4 0 0 0 
2315 5 0 0 0 
2316 6 0 0 0 
2317 5 0 0 0 
2318 6 0 0 0 
2319 5 0 0 0 
2320 6 0 0 0 
2321 1 0 0 0 
2322 2 0 0 0 
2323 3 0 0 0 
2324 4 0 0 0 
2325 5 0 0 0 
2326 6 0 0 0 
2327 5 0 0 0 
2328 6 0 0 0 
2329 5 0 0 0 
2330 6 0 0 0 
2331 1 0 0 0 
2332 2 0 0 0 
2333 3 0 0 0 
2334 4 0 0 0 
2335 5 0 0 0 
2336 6 0 0 0 
2337 5 0 0 0 
2338 6 0 0 0 
2339 5 0 0 0 
2340 6 0 0 0 
2341 1 0 0 0 
2342 2 0 0 0 
2343 3 0 0 0 
2344 4 0 0 0 
2345 5 0 0 0 
2346 6 0 0 0 
2347 5 0 0 0 
2348 6 0 0 0 
2349 5 0 0 0 
2350 6 0 0 0 
2401 1 0 0 0 
2402 2 0 0 0 
2403 3 0 0 0 
2404 4 0 0 0 
2405 5 0 0 0 
2406 6 0 0 0 
2407 5 0 0 0 
2408 6 0 0 0 
4459 5 0 0 0 
4460 6 0 0 0 
2411 1 0 0 0 
2412 2 0 0 0 
2413 3 0 0 0 
2414 4 0 0 0 
2415 5 0 0 0 
2416 6 0 0 0 
2417 5 0 0 0 
2418 6 0 0 0 
2419 5 0 0 0 
2420 6 0 0 0 
2421 1 0 0 0 
2422 2 0 0 0 
2423 3 0 0 0 
2424 4 0 0 0 
2425 5 0 0 0 
2426 6 0 0 0 
2427 5 0 0 0 
2428 6 0 0 0 
2429 5 0 0 0 
2430 6 0 0 0 
2431 1 0 0 0 
2432 2 0 0 0 
2433 3 0 0 0 
2434 4 0 0 0 
2435 5 0 0 0 
2436 6 0 0 0 
2437 5 0 0 0 
2438 6 0 0 0 
2439 5 0 0 0 
2440 6 0 0 0 
2441 1 0 0 0 
2442 2 0 0 0 
2443 3 0 0 0 
2444 4 0 0 0 
2445 5 0 0 0 
2446 6 0 0 0 
2447 5 0 0 0 
2448 6 0 0 0 
2449 5 0 0 0 
2450 6 0 0 0 
3001 1 0 0 0 
3002 2 0 0 0 
3003 3 0 0 0 
3004 4 0 0 0 
3005 5 0 0 0 
3006 6 0 0 0 
1548 6 0 0 0 
1547 5 0 0 0 
1460 6 0 0 0 
1459 5 0 0 0 
3011 1 0 0 0 
3012 2 0 0 0 
3013 3 0 0 0 
3014 4 0 0 0 
3015 5 0 0 0 
3016 6 0 0 0 
1538 6 0 0 0 
1537 5 0 0 0 
3019 5 0 0 0 
3020 6 0 0 0 
3021 1 0 0 0 
3022 2 0 0 0 
3023 3 0 0 0 
3024 4 0 0 0 
3025 5 0 0 0 
3026 6 0 0 0 
1528 6 0 0 0 
1527 5 0 0 0 
3029 5 0 0 0 
3030 6 0 0 0 
3031 1 0 0 0 
3032 2 0 0 0 
3033 3 0 0 0 
3034 4 0 0 0 
3035 5 0 0 0 
3036 6 0 0 0 
1518 6 0 0 0 
1517 5 0 0 0 
3039 5 0 0 0 
3040 6 0 0 0 
3041 1 0 0 0 
3042 2 0 0 0 
3043 3 0 0 0 
3044 4 0 0 0 
3045 5 0 0 0 
3046 6 0 0 0 
1508 6 0 0 0 
1507 5 0 0 0 
3049 5 0 0 0 
3050 6 0 0 0 
3101 1 0 0 0 
3102 2 0 0 0 
3103 3 0 0 0 
3104 4 0 0 0 
3105 5 0 0 0 
3106 6 0 0 0 
3107 5 0 0 0 
3108 6 0 0 0 
1360 6 0 0 0 
1359 5 0 0 0 
3111 1 0 0 0 
3112 2 0 0 0 
3113 3 0 0 0 
3114 4 0 0 0 
3115 5 0 0 0 
3116 6 0 0 0 
3117 5 0 0 0 
3118 6 0 0 0 
3119 5 0 0 0 
3120 6 0 0 0 
3121 1 0 0 0 
3122 2 0 0 0 
3123 3 0 0 0 
3124 4 0 0 0 
3125 5 0 0 0 
3126 6 0 0 0 
3127 5 0 0 0 
3128 6 0 0 0 
3129 5 0 0 0 
3130 6 0 0 0 
3131 1 0 0 0 
3132 2 0 0 0 
3133 3 0 0 0 
3134 4 0 0 0 
3135 5 0 0 0 
3136 6 0 0 0 
3137 5 0 0 0 
3138 6 0 0 0 
3139 5 0 0 0 
3140 6 0 0 0 
3141 1 0 0 0 
3142 2 0 0 0 
3143 3 0 0 0 
3144 4 0 0 0 
3145 5 0 0 0 
3146 6 0 0 0 
3147 5 0 0 0 
3148 6 0 0 0 
3149 5 0 0 0 
3150 6 0 0 0 
3201 1 0 0 0 
3202 2 0 0 0 
3203 3 0 0 0 
3204 4 0 0 0 
3205 5 0 0 0 
3206 6 0 0 0 
3207 5 0 0 0 
3208 6 0 0 0 
1260 6 0 0 0 
1259 5 0 0 0 
3211 1 0 0 0 
3212 2 0 0 0 
3213 3 0 0 0 
3214 4 0 0 0 
3215 5 0 0 0 
3216 6 0 0 0 
3217 5 0 0 0 
3218 6 0 0 0 
3219 5 0 0 0 
3220 6 0 0 0 
3221 1 0 0 0 
3222 2 0 0 0 
3223 3 0 0 0 
3224 4 0 0 0 
3225 5 0 0 0 
3226 6 0 0 0 
3227 5 0 0 0 
3228 6 0 0 0 
3229 5 0 0 0 
3230 6 0 0 0 
3231 1 0 0 0 
3232 2 0 0 0 
3233 3 0 0 0 
3234 4 0 0 0 
3235 5 0 0 0 
3236 6 0 0 0 
3237 5 0 0 0 
3238 6 0 0 0 
3239 5 0 0 0 
3240 6 0 0 0 
3241 1 0 0 0 
3242 2 0 0 0 
3243 3 0 0 0 
3244 4 0 0 0 
3245 5 0 0 0 
3246 6 0 0 0 
3247 5 0 0 0 
3248 6 0 0 0 
3249 5 0 0 0 
3250 6 0 0 0 
3301 1 0 0 0 
3302 2 0 0 0 
3303 3 0 0 0 
3304 4 0 0 0 
3305 5 0 0 0 
3306 6 0 0 0 
3307 5 0 0 0 
3308 6 0 0 0 
1160 6 0 0 0 
1159 5 0 0 0 
3311 1 0 0 0 
3312 2 0 0 0 
3313 3 0 0 0 
3314 4 0 0 0 
3315 5 0 0 0 
3316 6 0 0 0 
3317 5 0 0 0 
3318 6 0 0 0 
3319 5 0 0 0 
3320 6 0 0 0 
3321 1 0 0 0 
3322 2 0 0 0 
3323 3 0 0 0 
3324 4 0 0 0 
3325 5 0 0 0 
3326 6 0 0 0 
3327 5 0 0 0 
3328 6 0 0 0 
3329 5 0 0 0 
3330 6 0 0 0 
3331 1 0 0 0 
3332 2 0 0 0 
3333 3 0 0 0 
3334 4 0 0 0 
3335 5 0 0 0 
3336 6 0 0 0 
3337 5 0 0 0 
3338 6 0 0 0 
3339 5 0 0 0 
3340 6 0 0 0 
3341 1 0 0 0 
3342 2 0 0 0 
3343 3 0 0 0 
3344 4 0 0 0 
3345 5 0 0 0 
3346 6 0 0 0 
3347 5 0 0 0 
3348 6 0 0 0 
3349 5 0 0 0 
3350 6 0 0 0 
3401 1 0 0 0 
3402 2 0 0 0 
3403 3 0 0 0 
3404 4 0 0 0 
3405 5 0 0 0 
3406 6 0 0 0 
3407 5 0 0 0 
3408 6 0 0 0 
1060 6 0 0 0 
1059 5 0 0 0 
3411 1 0 0 0 
3412 2 0 0 0 
3413 3 0 0 0 
3414 4 0 0 0 
3415 5 0 0 0 
3416 6 0 0 0 
3417 5 0 0 0 
3418 6 0 0 0 
3419 5 0 0 0 
3420 6 0 0 0 
3421 1 0 0 0 
3422 2 0 0 0 
3423 3 0 0 0 
3424 4 0 0 0 
3425 5 0 0 0 
3426 6 0 0 0 
3427 5 0 0 0 
3428 6 0 0 0 
3429 5 0 0 0 
3430 6 0 0 0 
3431 1 0 0 0 
3432 2 0 0 0 
3433 3 0 0 0 
3434 4 0 0 0 
3435 5 0 0 0 
3436 6 0 0 0 
3437 5 0 0 0 
3438 6 0 0 0 
3439 5 0 0 0 
3440 6 0 0 0 
3441 1 0 0 0 
3442 2 0 0 0 
3443 3 0 0 0 
3444 4 0 0 0 
3445 5 0 0 0 
3446 6 0 0 0 
3447 5 0 0 0 
3448 6 0 0 0 
3449 5 0 0 0 
3450 6 0 0 0 
4001 1 0 0 0 
4002 2 0 0 0 
4003 3 0 0 0 
4004 4 0 0 0 
4005 5 0 0 0 
4006 6 0 0 0 
548 6 0 0 0 
547 5 0 0 0 
460 6 0 0 0 
459 5 0 0 0 
4011 1 0 0 0 
4012 2 0 0 0 
4013 3 0 0 0 
4014 4 0 0 0 
4015 5 0 0 0 
4016 6 0 0 0 
538 6 0 0 0 
537 5 0 0 0 
4019 5 0 0 0 
4020 6 0 0 0 
4021 1 0 0 0 
4022 2 0 0 0 
4023 3 0 0 0 
4024 4 0 0 0 
4025 5 0 0 0 
4026 6 0 0 0 
528 6 0 0 0 
527 5 0 0 0 
4029 5 0 0 0 
4030 6 0 0 0 
4031 1 0 0 0 
4032 2 0 0 0 
4033 3 0 0 0 
4034 4 0 0 0 
4035 5 0 0 0 
4036 6 0 0 0 
518 6 0 0 0 
517 5 0 0 0 
4039 5 0 0 0 
4040 6 0 0 0 
4041 1 0 0 0 
4042 2 0 0 0 
4043 3 0 0 0 
4044 4 0 0 0 
4045 5 0 0 0 
4046 6 0 0 0 
508 6 0 0 0 
507 5 0 0 0 
4049 5 0 0 0 
4050 6 0 0 0 
4101 1 0 0 0 
4102 2 0 0 0 
4103 3 0 0 0 
4104 4 0 0 0 
4105 5 0 0 0 
4106 6 0 0 0 
4107 5 0 0 0 
4108 6 0 0 0 
360 6 0 0 0 
359 5 0 0 0 
4111 1 0 0 0 
4112 2 0 0 0 
4113 3 0 0 0 
4114 4 0 0 0 
4115 5 0 0 0 
4116 6 0 0 0 
4117 5 0 0 0 
4118 6 0 0 0 
4119 5 0 0 0 
4120 6 0 0 0 
4121 1 0 0 0 
4122 2 0 0 0 
4123 3 0 0 0 
4124 4 0 0 0 
4125 5 0 0 0 
4126 6 0 0 0 
4127 5 0 0 0 
4128 6 0 0 0 
4129 5 0 0 0 
4130 6 0 0 0 
4131 1 0 0 0 
4132 2 0 0 0 
4133 3 0 0 0 
4134 4 0 0 0 
4135 5 0 0 0 
4136 6 0 0 0 
4137 5 0 0 0 
4138 6 0 0 0 
4139 5 0 0 0 
4140 6 0 0 0 
4141 1 0 0 0 
4142 2 0 0 0 
4143 3 0 0 0 
4144 4 0 0 0 
4145 5 0 0 0 
4146 6 0 0 0 
4147 5 0 0 0 
4148 6 0 0 0 
4149 5 0 0 0 
4150 6 0 0 0 
4201 1 0 0 0 
4202 2 0 0 0 
4203 3 0 0 0 
4204 4 0 0 0 
4205 5 0 0 0 
4206 6 0 0 0 
4207 5 0 0 0 
4208 6 0 0 0 
260 6 0 0 0 
259 5 0 0 0 
4211 1 0 0 0 
4212 2 0 0 0 
4213 3 0 0 0 
4214 4 0 0 0 
4215 5 0 0 0 
4216 6 0 0 0 
4217 5 0 0 0 
4218 6 0 0 0 
4219 5 0 0 0 
4220 6 0 0 0 
4221 1 0 0 0 
4222 2 0 0 0 
4223 3 0 0 0 
4224 4 0 0 0 
4225 5 0 0 0 
4226 6 0 0 0 
4227 5 0 0 0 
4228 6 0 0 0 
4229 5 0 0 0 
4230 6 0 0 0 
4231 1 0 0 0 
4232 2 0 0 0 
4233 3 0 0 0 
4234 4 0 0 0 
4235 5 0 0 0 
4236 6 0 0 0 
4237 5 0 0 0 
4238 6 0 0 0 
4239 5 0 0 0 
4240 6 0 0 0 
4241 1 0 0 0 
4242 2 0 0 0 
4243 3 0 0 0 
4244 4 0 0 0 
4245 5 0 0 0 
4246 6 0 0 0 
4247 5 0 0 0 
4248 6 0 0 0 
4249 5 0 0 0 
4250 6 0 0 0 
4301 1 0 0 0 
4302 2 0 0 0 
4303 3 0 0 0 
4304 4 0 0 0 
4305 5 0 0 0 
4306 6 0 0 0 
4307 5 0 0 0 
4308 6 0 0 0 
160 6 0 0 0 
159 5 0 0 0 
4311 1 0 0 0 
4312 2 0 0 0 
4313 3 0 0 0 
4314 4 0 0 0 
4315 5 0 0 0 
4316 6 0 0 0 
4317 5 0 0 0 
4318 6 0 0 0 
4319 5 0 0 0 
4320 6 0 0 0 
4321 1 0 0 0 
4322 2 0 0 0 
4323 3 0 0 0 
4324 4 0 0 0 
4325 5 0 0 0 
4326 6 0 0 0 
4327 5 0 0 0 
4328 6 0 0 0 
4329 5 0 0 0 
4330 6 0 0 0 
4331 1 0 0 0 
4332 2 0 0 0 
4333 3 0 0 0 
4334 4 0 0 0 
4335 5 0 0 0 
4336 6 0 0 0 
4337 5 0 0 0 
4338 6 0 0 0 
4339 5 0 0 0 
4340 6 0 0 0 
4341 1 0 0 0 
4342 2 0 0 0 
4343 3 0 0 0 
4344 4 0 0 0 
4345 5 0 0 0 
4346 6 0 0 0 
4347 5 0 0 0 
4348 6 0 0 0 
4349 5 0 0 0 
4350 6 0 0 0 
4401 1 0 0 0 
4402 2 0 0 0 
4403 3 0 0 0 
4404 4 0 0 0 
4405 5 0 0 0 
4406 6 0 0 0 
4407 5 0 0 0 
4408 6 0 0 0 
60 6 0 0 0 
59 5 0 0 0 
4411 1 0 0 0 
4412 2 0 0 0 
4413 3 0 0 0 
4414 4 0 0 0 
4415 5 0 0 0 
4416 6 0 0 0 
4417 5 0 0 0 
4418 6 0 0 0 
4419 5 0 0 0 
4420 6 0 0 0 
4421 1 0 0 0 
4422 2 0 0 0 
4423 3 0 0 0 
4424 4 0 0 0 
4425 5 0 0 0 
4426 6 0 0 0 
4427 5 0 0 0 
4428 6 0 0 0 
4429 5 0 0 0 
4430 6 0 0 0 
4431 1 0 0 0 
4432 2 0 0 0 
4433 3 0 0 0 
4434 4 0 0 0 
4435 5 0 0 0 
4436 6 0 0 0 
4437 5 0 0 0 
4438 6 0 0 0 
4439 5 0 0 0 
4440 6 0 0 0 
4441 1 0 0 0 
4442 2 0 0 0 
4443 3 0 0 0 
4444 4 0 0 0 
4445 5 0 0 0 
4446 6 0 0 0 
4447 5 0 0 0 
4448 6 0 0 0 
4449 5 0 0 0 
4450 6 0 0 0 
4500 6 0 0 0 
4499 5 0 0 0 
53 3 0 0 0 
54 4 0 0 0 
5496 6 0 0 0 
5495 5 0 0 0 
5266 6 0 0 0 
5265 5 0 0 0 
4498 6 0 0 0 
4497 5 0 0 0 
61 1 0 0 0 
62 2 0 0 0 
63 3 0 0 0 
64 4 0 0 0 
5486 6 0 0 0 
5485 5 0 0 0 
5096 6 0 0 0 
5095 5 0 0 0 
69 5 0 0 0 
70 6 0 0 0 
71 1 0 0 0 
72 2 0 0 0 
73 3 0 0 0 
74 4 0 0 0 
5476 6 0 0 0 
5475 5 0 0 0 
5086 6 0 0 0 
5085 5 0 0 0 
79 5 0 0 0 
80 6 0 0 0 
81 1 0 0 0 
82 2 0 0 0 
83 3 0 0 0 
84 4 0 0 0 
5466 6 0 0 0 
5465 5 0 0 0 
4578 6 0 0 0 
4577 5 0 0 0 
89 5 0 0 0 
90 6 0 0 0 
91 1 0 0 0 
92 2 0 0 0 
93 3 0 0 0 
94 4 0 0 0 
5456 6 0 0 0 
5455 5 0 0 0 
4568 6 0 0 0 
4567 5 0 0 0 
99 5 0 0 0 
100 6 0 0 0 
4496 6 0 0 0 
4495 5 0 0 0 
153 3 0 0 0 
154 4 0 0 0 
5396 6 0 0 0 
5395 5 0 0 0 
157 5 0 0 0 
158 6 0 0 0 
4494 4 0 0 0 
4493 3 0 0 0 
161 1 0 0 0 
162 2 0 0 0 
163 3 0 0 0 
164 4 0 0 0 
5386 6 0 0 0 
5385 5 0 0 0 
167 5 0 0 0 
168 6 0 0 0 
169 5 0 0 0 
170 6 0 0 0 
171 1 0 0 0 
172 2 0 0 0 
173 3 0 0 0 
174 4 0 0 0 
5376 6 0 0 0 
5375 5 0 0 0 
177 5 0 0 0 
178 6 0 0 0 
179 5 0 0 0 
180 6 0 0 0 
181 1 0 0 0 
182 2 0 0 0 
183 3 0 0 0 
184 4 0 0 0 
5366 6 0 0 0 
5365 5 0 0 0 
187 5 0 0 0 
188 6 0 0 0 
189 5 0 0 0 
190 6 0 0 0 
191 1 0 0 0 
192 2 0 0 0 
193 3 0 0 0 
194 4 0 0 0 
5356 6 0 0 0 
5355 5 0 0 0 
197 5 0 0 0 
198 6 0 0 0 
199 5 0 0 0 
200 6 0 0 0 
4492 2 0 0 0 
4491 1 0 0 0 
253 3 0 0 0 
254 4 0 0 0 
5296 6 0 0 0 
5295 5 0 0 0 
257 5 0 0 0 
258 6 0 0 0 
4490 6 0 0 0 
4489 5 0 0 0 
261 1 0 0 0 
262 2 0 0 0 
263 3 0 0 0 
264 4 0 0 0 
5286 6 0 0 0 
5285 5 0 0 0 
267 5 0 0 0 
268 6 0 0 0 
269 5 0 0 0 
270 6 0 0 0 
271 1 0 0 0 
272 2 0 0 0 
273 3 0 0 0 
274 4 0 0 0 
5276 6 0 0 0 
5275 5 0 0 0 
277 5 0 0 0 
278 6 0 0 0 
279 5 0 0 0 
280 6 0 0 0 
281 1 0 0 0 
282 2 0 0 0 
283 3 0 0 0 
284 4 0 0 0 
5256 6 0 0 0 
5255 5 0 0 0 
287 5 0 0 0 
288 6 0 0 0 
289 5 0 0 0 
290 6 0 0 0 
291 1 0 0 0 
292 2 0 0 0 
293 3 0 0 0 
294 4 0 0 0 
5196 6 0 0 0 
5195 5 0 0 0 
297 5 0 0 0 
298 6 0 0 0 
299 5 0 0 0 
300 6 0 0 0 
4488 6 0 0 0 
4487 5 0 0 0 
353 3 0 0 0 
354 4 0 0 0 
5186 6 0 0 0 
5185 5 0 0 0 
357 5 0 0 0 
358 6 0 0 0 
4486 6 0 0 0 
4485 5 0 0 0 
361 1 0 0 0 
362 2 0 0 0 
363 3 0 0 0 
364 4 0 0 0 
5176 6 0 0 0 
5175 5 0 0 0 
367 5 0 0 0 
368 6 0 0 0 
369 5 0 0 0 
370 6 0 0 0 
371 1 0 0 0 
372 2 0 0 0 
373 3 0 0 0 
374 4 0 0 0 
5166 6 0 0 0 
5165 5 0 0 0 
377 5 0 0 0 
378 6 0 0 0 
379 5 0 0 0 
380 6 0 0 0 
381 1 0 0 0 
382 2 0 0 0 
383 3 0 0 0 
384 4 0 0 0 
5156 6 0 0 0 
5155 5 0 0 0 
387 5 0 0 0 
388 6 0 0 0 
389 5 0 0 0 
390 6 0 0 0 
391 1 0 0 0 
392 2 0 0 0 
393 3 0 0 0 
394 4 0 0 0 
5076 6 0 0 0 
5075 5 0 0 0 
397 5 0 0 0 
398 6 0 0 0 
399 5 0 0 0 
400 6 0 0 0 
4484 4 0 0 0 
4483 3 0 0 0 
453 3 0 0 0 
454 4 0 0 0 
5066 6 0 0 0 
5065 5 0 0 0 
457 5 0 0 0 
458 6 0 0 0 
4482 2 0 0 0 
4481 1 0 0 0 
461 1 0 0 0 
462 2 0 0 0 
463 3 0 0 0 
464 4 0 0 0 
5056 6 0 0 0 
5055 5 0 0 0 
467 5 0 0 0 
468 6 0 0 0 
469 5 0 0 0 
470 6 0 0 0 
471 1 0 0 0 
472 2 0 0 0 
473 3 0 0 0 
474 4 0 0 0 
4598 6 0 0 0 
4597 5 0 0 0 
477 5 0 0 0 
478 6 0 0 0 
479 5 0 0 0 
480 6 0 0 0 
481 1 0 0 0 
482 2 0 0 0 
483 3 0 0 0 
484 4 0 0 0 
4558 6 0 0 0 
4557 5 0 0 0 
487 5 0 0 0 
488 6 0 0 0 
489 5 0 0 0 
490 6 0 0 0 
491 1 0 0 0 
492 2 0 0 0 
493 3 0 0 0 
494 4 0 0 0 
4588 6 0 0 0 
4587 5 0 0 0 
497 5 0 0 0 
498 6 0 0 0 
499 5 0 0 0 
500 6 0 0 0 
4480 6 0 0 0 
4479 5 0 0 0 
1053 3 0 0 0 
1054 4 0 0 0 
1055 5 0 0 0 
1056 6 0 0 0 
3598 6 0 0 0 
3597 5 0 0 0 
4478 6 0 0 0 
4477 5 0 0 0 
1061 1 0 0 0 
1062 2 0 0 0 
1063 3 0 0 0 
1064 4 0 0 0 
1065 5 0 0 0 
1066 6 0 0 0 
3588 6 0 0 0 
3587 5 0 0 0 
1069 5 0 0 0 
1070 6 0 0 0 
1071 1 0 0 0 
1072 2 0 0 0 
1073 3 0 0 0 
1074 4 0 0 0 
1075 5 0 0 0 
1076 6 0 0 0 
3578 6 0 0 0 
3577 5 0 0 0 
1079 5 0 0 0 
1080 6 0 0 0 
1081 1 0 0 0 
1082 2 0 0 0 
1083 3 0 0 0 
1084 4 0 0 0 
1085 5 0 0 0 
1086 6 0 0 0 
3568 6 0 0 0 
3567 5 0 0 0 
1089 5 0 0 0 
1090 6 0 0 0 
1091 1 0 0 0 
1092 2 0 0 0 
1093 3 0 0 0 
1094 4 0 0 0 
1095 5 0 0 0 
1096 6 0 0 0 
3558 6 0 0 0 
3557 5 0 0 0 
1099 5 0 0 0 
1100 6 0 0 0 
4476 6 0 0 0 
4475 5 0 0 0 
1153 3 0 0 0 
1154 4 0 0 0 
1155 5 0 0 0 
1156 6 0 0 0 
1157 5 0 0 0 
1158 6 0 0 0 
4474 4 0 0 0 
4473 3 0 0 0 
1161 1 0 0 0 
1162 2 0 0 0 
1163 3 0 0 0 
1164 4 0 0 0 
1165 5 0 0 0 
1166 6 0 0 0 
1167 5 0 0 0 
1168 6 0 0 0 
1169 5 0 0 0 
1170 6 0 0 0 
1171 1 0 0 0 
1172 2 0 0 0 
1173 3 0 0 0 
1174 4 0 0 0 
1175 5 0 0 0 
1176 6 0 0 0 
1177 5 0 0 0 
1178 6 0 0 0 
1179 5 0 0 0 
1180 6 0 0 0 
1181 1 0 0 0 
1182 2 0 0 0 
1183 3 0 0 0 
1184 4 0 0 0 
1185 5 0 0 0 
1186 6 0 0 0 
1187 5 0 0 0 
1188 6 0 0 0 
1189 5 0 0 0 
1190 6 0 0 0 
1191 1 0 0 0 
1192 2 0 0 0 
1193 3 0 0 0 
1194 4 0 0 0 
1195 5 0 0 0 
1196 6 0 0 0 
1197 5 0 0 0 
1198 6 0 0 0 
1199 5 0 0 0 
1200 6 0 0 0 
4472 2 0 0 0 
4471 1 0 0 0 
1253 3 0 0 0 
1254 4 0 0 0 
1255 5 0 0 0 
1256 6 0 0 0 
1257 5 0 0 0 
1258 6 0 0 0 
4470 6 0 0 0 
4469 5 0 0 0 
1261 1 0 0 0 
1262 2 0 0 0 
1263 3 0 0 0 
1264 4 0 0 0 
1265 5 0 0 0 
1266 6 0 0 0 
1267 5 0 0 0 
1268 6 0 0 0 
1269 5 0 0 0 
1270 6 0 0 0 
1271 1 0 0 0 
1272 2 0 0 0 
1273 3 0 0 0 
1274 4 0 0 0 
1275 5 0 0 0 
1276 6 0 0 0 
1277 5 0 0 0 
1278 6 0 0 0 
1279 5 0 0 0 
1280 6 0 0 0 
1281 1 0 0 0 
1282 2 0 0 0 
1283 3 0 0 0 
1284 4 0 0 0 
1285 5 0 0 0 
1286 6 0 0 0 
1287 5 0 0 0 
1288 6 0 0 0 
1289 5 0 0 0 
1290 6 0 0 0 
1291 1 0 0 0 
1292 2 0 0 0 
1293 3 0 0 0 
1294 4 0 0 0 
1295 5 0 0 0 
1296 6 0 0 0 
1297 5 0 0 0 
1298 6 0 0 0 
1299 5 0 0 0 
1300 6 0 0 0 
4468 6 0 0 0 
4467 5 0 0 0 
1353 3 0 0 0 
1354 4 0 0 0 
1355 5 0 0 0 
1356 6 0 0 0 
1357 5 0 0 0 
1358 6 0 0 0 
4466 6 0 0 0 
4465 5 0 0 0 
1361 1 0 0 0 
1362 2 0 0 0 
1363 3 0 0 0 
1364 4 0 0 0 
1365 5 0 0 0 
1366 6 0 0 0 
1367 5 0 0 0 
1368 6 0 0 0 
1369 5 0 0 0 
1370 6 0 0 0 
1371 1 0 0 0 
1372 2 0 0 0 
1373 3 0 0 0 
1374 4 0 0 0 
1375 5 0 0 0 
1376 6 0 0 0 
1377 5 0 0 0 
1378 6 0 0 0 
1379 5 0 0 0 
1380 6 0 0 0 
1381 1 0 0 0 
1382 2 0 0 0 
1383 3 0 0 0 
1384 4 0 0 0 
1385 5 0 0 0 
1386 6 0 0 0 
1387 5 0 0 0 
1388 6 0 0 0 
1389 5 0 0 0 
1390 6 0 0 0 
1391 1 0 0 0 
1392 2 0 0 0 
1393 3 0 0 0 
1394 4 0 0 0 
1395 5 0 0 0 
1396 6 0 0 0 
1397 5 0 0 0 
1398 6 0 0 0 
1399 5 0 0 0 
1400 6 0 0 0 
4464 4 0 0 0 
4463 3 0 0 0 
1453 3 0 0 0 
1454 4 0 0 0 
1455 5 0 0 0 
1456 6 0 0 0 
1457 5 0 0 0 
1458 6 0 0 0 
4462 2 0 0 0 
4461 1 0 0 0 
1461 1 0 0 0 
1462 2 0 0 0 
1463 3 0 0 0 
1464 4 0 0 0 
1465 5 0 0 0 
1466 6 0 0 0 
1467 5 0 0 0 
1468 6 0 0 0 
1469 5 0 0 0 
1470 6 0 0 0 
1471 1 0 0 0 
1472 2 0 0 0 
1473 3 0 0 0 
1474 4 0 0 0 
1475 5 0 0 0 
1476 6 0 0 0 
1477 5 0 0 0 
1478 6 0 0 0 
1479 5 0 0 0 
1480 6 0 0 0 
1481 1 0 0 0 
1482 2 0 0 0 
1483 3 0 0 0 
1484 4 0 0 0 
1485 5 0 0 0 
1486 6 0 0 0 
1487 5 0 0 0 
1488 6 0 0 0 
1489 5 0 0 0 
1490 6 0 0 0 
1491 1 0 0 0 
1492 2 0 0 0 
1493 3 0 0 0 
1494 4 0 0 0 
1495 5 0 0 0 
1496 6 0 0 0 
1497 5 0 0 0 
1498 6 0 0 0 
1499 5 0 0 0 
1500 6 0 0 0 
4458 6 0 0 0 
4457 5 0 0 0 
2053 3 0 0 0 
2054 4 0 0 0 
2055 5 0 0 0 
2056 6 0 0 0 
2598 6 0 0 0 
2597 5 0 0 0 
4456 6 0 0 0 
4455 5 0 0 0 
2061 1 0 0 0 
2062 2 0 0 0 
2063 3 0 0 0 
2064 4 0 0 0 
2065 5 0 0 0 
2066 6 0 0 0 
2588 6 0 0 0 
2587 5 0 0 0 
2069 5 0 0 0 
2070 6 0 0 0 
2071 1 0 0 0 
2072 2 0 0 0 
2073 3 0 0 0 
2074 4 0 0 0 
2075 5 0 0 0 
2076 6 0 0 0 
2578 6 0 0 0 
2577 5 0 0 0 
2079 5 0 0 0 
2080 6 0 0 0 
2081 1 0 0 0 
2082 2 0 0 0 
2083 3 0 0 0 
2084 4 0 0 0 
2085 5 0 0 0 
2086 6 0 0 0 
2568 6 0 0 0 
2567 5 0 0 0 
2089 5 0 0 0 
2090 6 0 0 0 
2091 1 0 0 0 
2092 2 0 0 0 
2093 3 0 0 0 
2094 4 0 0 0 
2095 5 0 0 0 
2096 6 0 0 0 
2558 6 0 0 0 
2557 5 0 0 0 
2099 5 0 0 0 
2100 6 0 0 0 
4454 4 0 0 0 
4453 3 0 0 0 
2153 3 0 0 0 
2154 4 0 0 0 
2155 5 0 0 0 
2156 6 0 0 0 
2157 5 0 0 0 
2158 6 0 0 0 
4400 6 0 0 0 
4399 5 0 0 0 
2161 1 0 0 0 
2162 2 0 0 0 
2163 3 0 0 0 
2164 4 0 0 0 
2165 5 0 0 0 
2166 6 0 0 0 
2167 5 0 0 0 
2168 6 0 0 0 
2169 5 0 0 0 
2170 6 0 0 0 
2171 1 0 0 0 
2172 2 0 0 0 
2173 3 0 0 0 
2174 4 0 0 0 
2175 5 0 0 0 
2176 6 0 0 0 
2177 5 0 0 0 
2178 6 0 0 0 
2179 5 0 0 0 
2180 6 0 0 0 
2181 1 0 0 0 
2182 2 0 0 0 
2183 3 0 0 0 
2184 4 0 0 0 
2185 5 0 0 0 
2186 6 0 0 0 
2187 5 0 0 0 
2188 6 0 0 0 
2189 5 0 0 0 
2190 6 0 0 0 
2191 1 0 0 0 
2192 2 0 0 0 
2193 3 0 0 0 
2194 4 0 0 0 
2195 5 0 0 0 
2196 6 0 0 0 
2197 5 0 0 0 
2198 6 0 0 0 
2199 5 0 0 0 
2200 6 0 0 0 
4398 6 0 0 0 
4397 5 0 0 0 
2253 3 0 0 0 
2254 4 0 0 0 
2255 5 0 0 0 
2256 6 0 0 0 
2257 5 0 0 0 
2258 6 0 0 0 
4396 6 0 0 0 
4395 5 0 0 0 
2261 1 0 0 0 
2262 2 0 0 0 
2263 3 0 0 0 
2264 4 0 0 0 
2265 5 0 0 0 
2266 6 0 0 0 
2267 5 0 0 0 
2268 6 0 0 0 
2269 5 0 0 0 
2270 6 0 0 0 
2271 1 0 0 0 
2272 2 0 0 0 
2273 3 0 0 0 
2274 4 0 0 0 
2275 5 0 0 0 
2276 6 0 0 0 
2277 5 0 0 0 
2278 6 0 0 0 
2279 5 0 0 0 
2280 6 0 0 0 
2281 1 0 0 0 
2282 2 0 0 0 
2283 3 0 0 0 
2284 4 0 0 0 
2285 5 0 0 0 
2286 6 0 0 0 
2287 5 0 0 0 
2288 6 0 0 0 
2289 5 0 0 0 
2290 6 0 0 0 
2291 1 0 0 0 
2292 2 0 0 0 
2293 3 0 0 0 
2294 4 0 0 0 
2295 5 0 0 0 
2296 6 0 0 0 
2297 5 0 0 0 
2298 6 0 0 0 
2299 5 0 0 0 
2300 6 0 0 0 
4394 4 0 0 0 
4393 3 0 0 0 
2353 3 0 0 0 
2354 4 0 0 0 
2355 5 0 0 0 
2356 6 0 0 0 
2357 5 0 0 0 
2358 6 0 0 0 
4392 2 0 0 0 
4391 1 0 0 0 
2361 1 0 0 0 
2362 2 0 0 0 
2363 3 0 0 0 
2364 4 0 0 0 
2365 5 0 0 0 
2366 6 0 0 0 
2367 5 0 0 0 
2368 6 0 0 0 
2369 5 0 0 0 
2370 6 0 0 0 
2371 1 0 0 0 
2372 2 0 0 0 
2373 3 0 0 0 
2374 4 0 0 0 
2375 5 0 0 0 
2376 6 0 0 0 
2377 5 0 0 0 
2378 6 0 0 0 
2379 5 0 0 0 
2380 6 0 0 0 
2381 1 0 0 0 
2382 2 0 0 0 
2383 3 0 0 0 
2384 4 0 0 0 
2385 5 0 0 0 
2386 6 0 0 0 
2387 5 0 0 0 
2388 6 0 0 0 
2389 5 0 0 0 
2390 6 0 0 0 
2391 1 0 0 0 
2392 2 0 0 0 
2393 3 0 0 0 
2394 4 0 0 0 
2395 5 0 0 0 
2396 6 0 0 0 
2397 5 0 0 0 
2398 6 0 0 0 
2399 5 0 0 0 
2400 6 0 0 0 
4390 6 0 0 0 
4389 5 0 0 0 
2453 3 0 0 0 
2454 4 0 0 0 
2455 5 0 0 0 
2456 6 0 0 0 
2457 5 0 0 0 
2458 6 0 0 0 
4388 6 0 0 0 
4387 5 0 0 0 
2461 1 0 0 0 
2462 2 0 0 0 
2463 3 0 0 0 
2464 4 0 0 0 
2465 5 0 0 0 
2466 6 0 0 0 
2467 5 0 0 0 
2468 6 0 0 0 
2469 5 0 0 0 
2470 6 0 0 0 
2471 1 0 0 0 
2472 2 0 0 0 
2473 3 0 0 0 
2474 4 0 0 0 
2475 5 0 0 0 
2476 6 0 0 0 
2477 5 0 0 0 
2478 6 0 0 0 
2479 5 0 0 0 
2480 6 0 0 0 
2481 1 0 0 0 
2482 2 0 0 0 
2483 3 0 0 0 
2484 4 0 0 0 
2485 5 0 0 0 
2486 6 0 0 0 
2487 5 0 0 0 
2488 6 0 0 0 
2489 5 0 0 0 
2490 6 0 0 0 
2491 1 0 0 0 
2492 2 0 0 0 
2493 3 0 0 0 
2494 4 0 0 0 
2495 5 0 0 0 
2496 6 0 0 0 
2497 5 0 0 0 
2498 6 0 0 0 
2499 5 0 0 0 
2500 6 0 0 0 
4386 6 0 0 0 
4385 5 0 0 0 
3053 3 0 0 0 
3054 4 0 0 0 
3055 5 0 0 0 
3056 6 0 0 0 
1598 6 0 0 0 
1597 5 0 0 0 
4384 4 0 0 0 
4383 3 0 0 0 
3061 1 0 0 0 
3062 2 0 0 0 
3063 3 0 0 0 
3064 4 0 0 0 
3065 5 0 0 0 
3066 6 0 0 0 
1588 6 0 0 0 
1587 5 0 0 0 
3069 5 0 0 0 
3070 6 0 0 0 
3071 1 0 0 0 
3072 2 0 0 0 
3073 3 0 0 0 
3074 4 0 0 0 
3075 5 0 0 0 
3076 6 0 0 0 
1578 6 0 0 0 
1577 5 0 0 0 
3079 5 0 0 0 
3080 6 0 0 0 
3081 1 0 0 0 
3082 2 0 0 0 
3083 3 0 0 0 
3084 4 0 0 0 
3085 5 0 0 0 
3086 6 0 0 0 
1568 6 0 0 0 
1567 5 0 0 0 
3089 5 0 0 0 
3090 6 0 0 0 
3091 1 0 0 0 
3092 2 0 0 0 
3093 3 0 0 0 
3094 4 0 0 0 
3095 5 0 0 0 
3096 6 0 0 0 
1558 6 0 0 0 
1557 5 0 0 0 
3099 5 0 0 0 
3100 6 0 0 0 
4382 2 0 0 0 
4381 1 0 0 0 
3153 3 0 0 0 
3154 4 0 0 0 
3155 5 0 0 0 
3156 6 0 0 0 
3157 5 0 0 0 
3158 6 0 0 0 
4380 6 0 0 0 
4379 5 0 0 0 
3161 1 0 0 0 
3162 2 0 0 0 
3163 3 0 0 0 
3164 4 0 0 0 
3165 5 0 0 0 
3166 6 0 0 0 
3167 5 0 0 0 
3168 6 0 0 0 
3169 5 0 0 0 
3170 6 0 0 0 
3171 1 0 0 0 
3172 2 0 0 0 
3173 3 0 0 0 
3174 4 0 0 0 
3175 5 0 0 0 
3176 6 0 0 0 
3177 5 0 0 0 
3178 6 0 0 0 
3179 5 0 0 0 
3180 6 0 0 0 
3181 1 0 0 0 
3182 2 0 0 0 
3183 3 0 0 0 
3184 4 0 0 0 
3185 5 0 0 0 
3186 6 0 0 0 
3187 5 0 0 0 
3188 6 0 0 0 
3189 5 0 0 0 
3190 6 0 0 0 
3191 1 0 0 0 
3192 2 0 0 0 
3193 3 0 0 0 
3194 4 0 0 0 
3195 5 0 0 0 
3196 6 0 0 0 
3197 5 0 0 0 
3198 6 0 0 0 
3199 5 0 0 0 
3200 6 0 0 0 
4378 6 0 0 0 
4377 5 0 0 0 
3253 3 0 0 0 
3254 4 0 0 0 
3255 5 0 0 0 
3256 6 0 0 0 
3257 5 0 0 0 
3258 6 0 0 0 
4376 6 0 0 0 
4375 5 0 0 0 
3261 1 0 0 0 
3262 2 0 0 0 
3263 3 0 0 0 
3264 4 0 0 0 
3265 5 0 0 0 
3266 6 0 0 0 
3267 5 0 0 0 
3268 6 0 0 0 
3269 5 0 0 0 
3270 6 0 0 0 
3271 1 0 0 0 
3272 2 0 0 0 
3273 3 0 0 0 
3274 4 0 0 0 
3275 5 0 0 0 
3276 6 0 0 0 
3277 5 0 0 0 
3278 6 0 0 0 
3279 5 0 0 0 
3280 6 0 0 0 
3281 1 0 0 0 
3282 2 0 0 0 
3283 3 0 0 0 
3284 4 0 0 0 
3285 5 0 0 0 
3286 6 0 0 0 
3287 5 0 0 0 
3288 6 0 0 0 
3289 5 0 0 0 
3290 6 0 0 0 
3291 1 0 0 0 
3292 2 0 0 0 
3293 3 0 0 0 
3294 4 0 0 0 
3295 5 0 0 0 
3296 6 0 0 0 
3297 5 0 0 0 
3298 6 0 0 0 