ITEM: TIMESTEP
0
ITEM: NUMBER OF ATOMS
14000
ITEM: BOX BOUNDS xy xz yz pp pp pp
0.0000000000000000e+00 4.0419143340781005e+01 1.8616694878900000e-01
0.0000000000000000e+00 4.0232976391992004e+01 1.3297639199200001e-01
0.0000000000000000e+00 5.6140000000000001e+01 1.3297639199200001e-01
ITEM: ATOMS id type c_dr[1] c_dr[2] c_dr[3] 
1 1 0 0 0 
2 2 0 0 0 
3 3 0 0 0 
4 4 0 0 0 
5 5 0 0 0 
6 6 0 0 0 
7 5 0 8.67362e-19 0 
8 6 0 8.67362e-19 0 
9 5 0 0 0 
10 6 0 0 0 
11 1 0 1.73472e-18 0 
12 2 0 1.73472e-18 0 
13 3 0 0 8.88178e-16 
14 4 0 0 8.88178e-16 
15 5 0 0 8.88178e-16 
16 6 0 0 8.88178e-16 
17 5 0 3.46945e-18 8.88178e-16 
18 6 0 3.46945e-18 8.88178e-16 
19 5 0 0 0 
20 6 0 0 0 
21 1 0 3.46945e-18 0 
22 2 0 3.46945e-18 0 
23 3 0 0 0 
24 4 0 0 0 
25 5 6.93889e-18 0 0 
26 6 6.93889e-18 0 0 
27 5 0 1.04083e-17 0 
28 6 0 1.04083e-17 0 
29 5 0 0 0 
30 6 0 0 0 
31 1 3.46945e-18 6.93889e-18 1.77636e-15 
32 2 3.46945e-18 6.93889e-18 1.77636e-15 
33 3 0 0 0 
34 4 0 0 0 
35 5 0 0 0 
36 6 0 0 0 
37 5 0 6.93889e-18 0 
38 6 0 6.93889e-18 0 
39 5 0 0 1.77636e-15 
40 6 0 0 1.77636e-15 
41 1 0 6.93889e-18 0 
42 2 0 6.93889e-18 0 
43 3 0 -4.44089e-16 0 
44 4 0 -4.44089e-16 0 
45 5 0 -4.44089e-16 0 
46 6 0 -4.44089e-16 0 
47 5 -4.44089e-16 6.93889e-18 0 
48 6 -4.44089e-16 6.93889e-18 0 
49 5 0 0 0 
50 6 0 0 0 
51 1 2.08167e-17 2.08167e-17 0 
52 2 2.08167e-17 2.08167e-17 0 
53 3 0 0 3.55271e-15 
54 4 0 0 3.55271e-15 
55 5 0 0 3.55271e-15 
56 6 0 0 3.55271e-15 
57 5 0 1.38778e-17 3.55271e-15 
58 6 0 1.38778e-17 3.55271e-15 
59 5 0 -4.44089e-16 0 
60 6 0 -4.44089e-16 0 
61 1 6.93889e-18 1.38778e-17 3.55271e-15 
62 2 6.93889e-18 1.38778e-17 3.55271e-15 
63 3 -4.44089e-16 0 0 
64 4 -4.44089e-16 0 0 
65 5 0 0 0 
66 6 0 0 0 
67 5 -4.44089e-16 1.38778e-17 0 
68 6 -4.44089e-16 1.38778e-17 0 
69 5 0 0 3.55271e-15 
70 6 0 0 3.55271e-15 
141 1 0 0 0 
142 2 0 0 0 
143 3 0 0 0 
144 4 0 0 0 
145 5 0 0 0 
146 6 0 0 0 
147 5 0 -8.88178e-16 0 
148 6 0 -8.88178e-16 0 
149 5 0 0 0 
150 6 0 0 0 
151 1 0 0 0 
152 2 0 0 0 
153 3 0 0 8.88178e-16 
154 4 0 0 8.88178e-16 
155 5 6.93889e-18 0 8.88178e-16 
156 6 6.93889e-18 0 8.88178e-16 
157 5 0 -8.88178e-16 8.88178e-16 
158 6 0 -8.88178e-16 8.88178e-16 
159 5 0 0 0 
160 6 0 0 0 
161 1 0 0 0 
162 2 0 0 0 
163 3 0 0 0 
164 4 0 0 0 
165 5 6.93889e-18 0 0 
166 6 6.93889e-18 0 0 
167 5 0 0 0 
168 6 0 0 0 
169 5 0 0 0 
170 6 0 0 0 
171 1 0 0 1.77636e-15 
172 2 0 0 1.77636e-15 
173 3 0 0 0 
174 4 0 0 0 
175 5 0 0 0 
176 6 0 0 0 
177 5 0 0 0 
178 6 0 0 0 
179 5 0 0 1.77636e-15 
180 6 0 0 1.77636e-15 
181 1 6.93889e-18 0 0 
182 2 6.93889e-18 0 0 
183 3 0 -1.77636e-15 0 
184 4 0 -1.77636e-15 0 
185 5 0 -1.77636e-15 0 
186 6 0 -1.77636e-15 0 
187 5 0 0 0 
188 6 0 0 0 
189 5 -4.44089e-16 0 0 
190 6 -4.44089e-16 0 0 
191 1 1.38778e-17 0 0 
192 2 1.38778e-17 0 0 
193 3 0 0 3.55271e-15 
194 4 0 0 3.55271e-15 
195 5 1.38778e-17 0 3.55271e-15 
196 6 1.38778e-17 0 3.55271e-15 
197 5 0 0 3.55271e-15 
198 6 0 0 3.55271e-15 
199 5 0 0 0 
200 6 0 0 0 
201 1 0 0 3.55271e-15 
202 2 0 0 3.55271e-15 
203 3 -4.44089e-16 0 0 
204 4 -4.44089e-16 0 0 
205 5 1.38778e-17 0 0 
206 6 1.38778e-17 0 0 
207 5 -4.44089e-16 0 0 
208 6 -4.44089e-16 0 0 
209 5 0 0 3.55271e-15 
210 6 0 0 3.55271e-15 
281 1 0 0 0 
282 2 0 0 0 
283 3 0 0 0 
284 4 0 0 0 
285 5 6.93889e-18 0 0 
286 6 6.93889e-18 0 0 
287 5 0 0 0 
288 6 0 0 0 
289 5 -4.44089e-16 0 0 
290 6 -4.44089e-16 0 0 
291 1 -6.93889e-18 -1.77636e-15 0 
292 2 -6.93889e-18 -1.77636e-15 0 
293 3 0 0 8.88178e-16 
294 4 0 0 8.88178e-16 
295 5 0 0 8.88178e-16 
296 6 0 0 8.88178e-16 
297 5 0 0 8.88178e-16 
298 6 0 0 8.88178e-16 
299 5 0 -1.77636e-15 0 
300 6 0 -1.77636e-15 0 
301 1 0 0 0 
302 2 0 0 0 
303 3 0 0 0 
304 4 0 0 0 
305 5 0 0 0 
306 6 0 0 0 
307 5 0 0 0 
308 6 0 0 0 
309 5 0 0 0 
310 6 0 0 0 
311 1 0 -1.77636e-15 1.77636e-15 
312 2 0 -1.77636e-15 1.77636e-15 
313 3 0 0 0 
314 4 0 0 0 
315 5 0 0 0 
316 6 0 0 0 
317 5 0 0 0 
318 6 0 0 0 
319 5 0 -1.77636e-15 1.77636e-15 
320 6 0 -1.77636e-15 1.77636e-15 
321 1 0 0 0 
322 2 0 0 0 
323 3 -4.44089e-16 0 0 
324 4 -4.44089e-16 0 0 
325 5 1.38778e-17 0 0 
326 6 1.38778e-17 0 0 
327 5 -4.44089e-16 0 0 
328 6 -4.44089e-16 0 0 
329 5 -4.44089e-16 0 0 
330 6 -4.44089e-16 0 0 
331 1 1.38778e-17 0 0 
332 2 1.38778e-17 0 0 
333 3 0 0 3.55271e-15 
334 4 0 0 3.55271e-15 
335 5 0 0 3.55271e-15 
336 6 0 0 3.55271e-15 
337 5 0 0 3.55271e-15 
338 6 0 0 3.55271e-15 
339 5 0 0 0 
340 6 0 0 0 
341 1 0 0 3.55271e-15 
342 2 0 0 3.55271e-15 
343 3 -4.44089e-16 0 0 
344 4 -4.44089e-16 0 0 
345 5 0 0 0 
346 6 0 0 0 
347 5 -4.44089e-16 0 0 
348 6 -4.44089e-16 0 0 
349 5 0 0 3.55271e-15 
350 6 0 0 3.55271e-15 
421 1 6.93889e-18 0 0 
422 2 6.93889e-18 0 0 
423 3 0 0 0 
424 4 0 0 0 
425 5 0 0 0 
426 6 0 0 0 
427 5 0 0 0 
428 6 0 0 0 
429 5 0 0 0 
430 6 0 0 0 
431 1 0 0 0 
432 2 0 0 0 
433 3 0 0 8.88178e-16 
434 4 0 0 8.88178e-16 
435 5 1.38778e-17 0 8.88178e-16 
436 6 1.38778e-17 0 8.88178e-16 
437 5 0 0 8.88178e-16 
438 6 0 0 8.88178e-16 
439 5 0 0 0 
440 6 0 0 0 
441 1 0 0 0 
442 2 0 0 0 
443 3 -4.44089e-16 -1.77636e-15 0 
444 4 -4.44089e-16 -1.77636e-15 0 
445 5 0 -1.77636e-15 0 
446 6 0 -1.77636e-15 0 
447 5 0 0 0 
448 6 0 0 0 
449 5 0 0 0 
450 6 0 0 0 
451 1 1.38778e-17 0 1.77636e-15 
452 2 1.38778e-17 0 1.77636e-15 
453 3 0 0 0 
454 4 0 0 0 
455 5 1.38778e-17 0 0 
456 6 1.38778e-17 0 0 
457 5 0 0 0 
458 6 0 0 0 
459 5 0 -1.77636e-15 1.77636e-15 
460 6 0 -1.77636e-15 1.77636e-15 
461 1 0 0 0 
462 2 0 0 0 
463 3 -4.44089e-16 0 0 
464 4 -4.44089e-16 0 0 
465 5 1.38778e-17 0 0 
466 6 1.38778e-17 0 0 
467 5 -4.44089e-16 0 0 
468 6 -4.44089e-16 0 0 
469 5 -4.44089e-16 0 0 
470 6 -4.44089e-16 0 0 
471 1 1.38778e-17 0 0 
472 2 1.38778e-17 0 0 
473 3 -4.44089e-16 0 3.55271e-15 
474 4 -4.44089e-16 0 3.55271e-15 
475 5 0 0 3.55271e-15 
476 6 0 0 3.55271e-15 
477 5 0 0 3.55271e-15 
478 6 0 0 3.55271e-15 
479 5 -4.44089e-16 0 0 
480 6 -4.44089e-16 0 0 
481 1 2.77556e-17 0 3.55271e-15 
482 2 2.77556e-17 0 3.55271e-15 
483 3 -4.44089e-16 0 0 
484 4 -4.44089e-16 0 0 
485 5 0 0 0 
486 6 0 0 0 
487 5 -4.44089e-16 0 0 
488 6 -4.44089e-16 0 0 
489 5 0 0 3.55271e-15 
490 6 0 0 3.55271e-15 
561 1 0 0 0 
562 2 0 0 0 
563 3 0 0 0 
564 4 0 0 0 
565 5 0 0 0 
566 6 0 0 0 
567 5 0 0 0 
568 6 0 0 0 
569 5 0 0 0 
570 6 0 0 0 
571 1 0 0 0 
572 2 0 0 0 
573 3 4.44089e-16 0 8.88178e-16 
574 4 4.44089e-16 0 8.88178e-16 
575 5 1.38778e-17 0 8.88178e-16 
576 6 1.38778e-17 0 8.88178e-16 
577 5 0 0 8.88178e-16 
578 6 0 0 8.88178e-16 
579 5 0 0 0 
580 6 0 0 0 
581 1 -1.38778e-17 -3.55271e-15 0 
582 2 -1.38778e-17 -3.55271e-15 0 
583 3 0 0 0 
584 4 0 0 0 
585 5 2.77556e-17 0 0 
586 6 2.77556e-17 0 0 
587 5 0 0 0 
588 6 0 0 0 
589 5 0 -3.55271e-15 0 
590 6 0 -3.55271e-15 0 
591 1 1.38778e-17 0 1.77636e-15 
592 2 1.38778e-17 0 1.77636e-15 
593 3 0 0 0 
594 4 0 0 0 
595 5 0 0 0 
596 6 0 0 0 
597 5 0 0 0 
598 6 0 0 0 
599 5 0 0 1.77636e-15 
600 6 0 0 1.77636e-15 
601 1 0 0 0 
602 2 0 0 0 
603 3 0 0 0 
604 4 0 0 0 
605 5 2.77556e-17 0 0 
606 6 2.77556e-17 0 0 
607 5 0 0 0 
608 6 0 0 0 
609 5 0 0 0 
610 6 0 0 0 
611 1 1.38778e-17 0 0 
612 2 1.38778e-17 0 0 
613 3 0 -3.55271e-15 3.55271e-15 
614 4 0 -3.55271e-15 3.55271e-15 
615 5 0 -3.55271e-15 3.55271e-15 
616 6 0 -3.55271e-15 3.55271e-15 
617 5 -4.44089e-16 -3.55271e-15 3.55271e-15 
618 6 -4.44089e-16 -3.55271e-15 3.55271e-15 
619 5 0 0 0 
620 6 0 0 0 
621 1 0 -3.55271e-15 3.55271e-15 
622 2 0 -3.55271e-15 3.55271e-15 
623 3 0 0 0 
624 4 0 0 0 
625 5 2.77556e-17 0 0 
626 6 2.77556e-17 0 0 
627 5 0 0 0 
628 6 0 0 0 
629 5 0 -3.55271e-15 3.55271e-15 
630 6 0 -3.55271e-15 3.55271e-15 
1401 1 0 0 0 
1402 2 0 0 0 
1403 3 0 0 0 
1404 4 0 0 0 
1405 5 0 0 0 
1406 6 0 0 0 
1407 5 0 8.67362e-19 0 
1408 6 0 8.67362e-19 0 
1409 5 0 0 0 
1410 6 0 0 0 
1411 1 0 1.73472e-18 0 
1412 2 0 1.73472e-18 0 
1413 3 0 0 8.88178e-16 
1414 4 0 0 8.88178e-16 
1415 5 0 0 8.88178e-16 
1416 6 0 0 8.88178e-16 
1417 5 0 3.46945e-18 8.88178e-16 
1418 6 0 3.46945e-18 8.88178e-16 
1419 5 0 0 0 
1420 6 0 0 0 
1421 1 0 3.46945e-18 0 
1422 2 0 3.46945e-18 0 
1423 3 0 0 0 
1424 4 0 0 0 
1425 5 0 0 0 
1426 6 0 0 0 
1427 5 0 1.04083e-17 0 
1428 6 0 1.04083e-17 0 
1429 5 0 0 0 
1430 6 0 0 0 
1431 1 0 6.93889e-18 1.77636e-15 
1432 2 0 6.93889e-18 1.77636e-15 
1433 3 0 0 0 
1434 4 0 0 0 
1435 5 0 0 0 
1436 6 0 0 0 
1437 5 0 6.93889e-18 0 
1438 6 0 6.93889e-18 0 
1439 5 0 0 1.77636e-15 
1440 6 0 0 1.77636e-15 
1441 1 0 6.93889e-18 0 
1442 2 0 6.93889e-18 0 
1443 3 0 -4.44089e-16 0 
1444 4 0 -4.44089e-16 0 
1445 5 0 -4.44089e-16 0 
1446 6 0 -4.44089e-16 0 
1447 5 0 6.93889e-18 0 
1448 6 0 6.93889e-18 0 
1449 5 0 0 0 
1450 6 0 0 0 
1451 1 0 2.08167e-17 0 
1452 2 0 2.08167e-17 0 
1453 3 0 0 3.55271e-15 
1454 4 0 0 3.55271e-15 
1455 5 0 0 3.55271e-15 
1456 6 0 0 3.55271e-15 
1457 5 0 1.38778e-17 3.55271e-15 
1458 6 0 1.38778e-17 3.55271e-15 
1459 5 0 -4.44089e-16 0 
1460 6 0 -4.44089e-16 0 
1461 1 0 1.38778e-17 3.55271e-15 
1462 2 0 1.38778e-17 3.55271e-15 
1463 3 0 0 0 
1464 4 0 0 0 
1465 5 0 0 0 
1466 6 0 0 0 
1467 5 0 1.38778e-17 0 
1468 6 0 1.38778e-17 0 
1469 5 0 0 3.55271e-15 
1470 6 0 0 3.55271e-15 
1541 1 0 0 0 
1542 2 0 0 0 
1543 3 0 0 0 
1544 4 0 0 0 
1545 5 0 0 0 
1546 6 0 0 0 
1547 5 0 -8.88178e-16 0 
1548 6 0 -8.88178e-16 0 
1549 5 0 0 0 
1550 6 0 0 0 
1551 1 0 0 0 
1552 2 0 0 0 
1553 3 0 0 8.88178e-16 
1554 4 0 0 8.88178e-16 
1555 5 0 0 8.88178e-16 
1556 6 0 0 8.88178e-16 
1557 5 -1.77636e-15 -8.88178e-16 8.88178e-16 
1558 6 -1.77636e-15 -8.88178e-16 8.88178e-16 
1559 5 0 0 0 
1560 6 0 0 0 
1561 1 0 0 0 
1562 2 0 0 0 
1563 3 0 0 0 
1564 4 0 0 0 
1565 5 0 0 0 
1566 6 0 0 0 
1567 5 0 0 0 
1568 6 0 0 0 
1569 5 0 0 0 
1570 6 0 0 0 
1571 1 0 0 1.77636e-15 
1572 2 0 0 1.77636e-15 
1573 3 0 0 0 
1574 4 0 0 0 
1575 5 0 0 0 
1576 6 0 0 0 
1577 5 0 0 0 
1578 6 0 0 0 
1579 5 0 0 1.77636e-15 
1580 6 0 0 1.77636e-15 
1581 1 0 0 0 
1582 2 0 0 0 
1583 3 0 -1.77636e-15 0 
1584 4 0 -1.77636e-15 0 
1585 5 0 -1.77636e-15 0 
1586 6 0 -1.77636e-15 0 
1587 5 0 0 0 
1588 6 0 0 0 
1589 5 0 0 0 
1590 6 0 0 0 
1591 1 0 0 0 
1592 2 0 0 0 
1593 3 0 0 3.55271e-15 
1594 4 0 0 3.55271e-15 
1595 5 0 0 3.55271e-15 
1596 6 0 0 3.55271e-15 
1597 5 0 0 3.55271e-15 
1598 6 0 0 3.55271e-15 
1599 5 0 0 0 
1600 6 0 0 0 
1601 1 0 0 3.55271e-15 
1602 2 0 0 3.55271e-15 
1603 3 0 0 0 
1604 4 0 0 0 
1605 5 0 0 0 
1606 6 0 0 0 
1607 5 0 0 0 
1608 6 0 0 0 
1609 5 0 0 3.55271e-15 
1610 6 0 0 3.55271e-15 
1681 1 0 0 0 
1682 2 0 0 0 
1683 3 0 0 0 
1684 4 0 0 0 
1685 5 0 0 0 
1686 6 0 0 0 
1687 5 0 0 0 
1688 6 0 0 0 
1689 5 0 0 0 
1690 6 0 0 0 
1691 1 0 -1.77636e-15 0 
1692 2 0 -1.77636e-15 0 
1693 3 0 0 8.88178e-16 
1694 4 0 0 8.88178e-16 
1695 5 0 0 8.88178e-16 
1696 6 0 0 8.88178e-16 
1697 5 -1.77636e-15 0 8.88178e-16 
1698 6 -1.77636e-15 0 8.88178e-16 
1699 5 0 -1.77636e-15 0 
1700 6 0 -1.77636e-15 0 
1701 1 0 0 0 
1702 2 0 0 0 
1703 3 0 0 0 
1704 4 0 0 0 
1705 5 0 0 0 
1706 6 0 0 0 
1707 5 0 0 0 
1708 6 0 0 0 
1709 5 0 0 0 
1710 6 0 0 0 
1711 1 0 -1.77636e-15 1.77636e-15 
1712 2 0 -1.77636e-15 1.77636e-15 
1713 3 0 0 0 
1714 4 0 0 0 
1715 5 0 0 0 
1716 6 0 0 0 
1717 5 0 0 0 
1718 6 0 0 0 
1719 5 0 -1.77636e-15 1.77636e-15 
1720 6 0 -1.77636e-15 1.77636e-15 
1721 1 0 0 0 
1722 2 0 0 0 
1723 3 0 0 0 
1724 4 0 0 0 
1725 5 0 0 0 
1726 6 0 0 0 
1727 5 0 0 0 
1728 6 0 0 0 
1729 5 8.88178e-16 0 0 
1730 6 8.88178e-16 0 0 
1731 1 0 0 0 
1732 2 0 0 0 
1733 3 0 0 3.55271e-15 
1734 4 0 0 3.55271e-15 
1735 5 0 0 3.55271e-15 
1736 6 0 0 3.55271e-15 
1737 5 0 0 3.55271e-15 
1738 6 0 0 3.55271e-15 
1739 5 0 0 0 
1740 6 0 0 0 
1741 1 0 0 3.55271e-15 
1742 2 0 0 3.55271e-15 
1743 3 0 0 0 
1744 4 0 0 0 
1745 5 0 0 0 
1746 6 0 0 0 
1747 5 0 0 0 
1748 6 0 0 0 
1749 5 0 0 3.55271e-15 
1750 6 0 0 3.55271e-15 
1821 1 0 0 0 
1822 2 0 0 0 
1823 3 -1.77636e-15 0 0 
1824 4 -1.77636e-15 0 0 
1825 5 0 0 0 
1826 6 0 0 0 
1827 5 0 0 0 
1828 6 0 0 0 
1829 5 0 0 0 
1830 6 0 0 0 
1831 1 0 0 0 
1832 2 0 0 0 
1833 3 0 0 8.88178e-16 
1834 4 0 0 8.88178e-16 
1835 5 0 0 8.88178e-16 
1836 6 0 0 8.88178e-16 
1837 5 -1.77636e-15 0 8.88178e-16 
1838 6 -1.77636e-15 0 8.88178e-16 
1839 5 0 0 0 
1840 6 0 0 0 
1841 1 0 0 0 
1842 2 0 0 0 
1843 3 0 -1.77636e-15 0 
1844 4 0 -1.77636e-15 0 
1845 5 0 -1.77636e-15 0 
1846 6 0 -1.77636e-15 0 
1847 5 0 0 0 
1848 6 0 0 0 
1849 5 0 0 0 
1850 6 0 0 0 
1851 1 0 0 1.77636e-15 
1852 2 0 0 1.77636e-15 
1853 3 0 0 0 
1854 4 0 0 0 
1855 5 0 0 0 
1856 6 0 0 0 
1857 5 0 0 0 
1858 6 0 0 0 
1859 5 0 -1.77636e-15 1.77636e-15 
1860 6 0 -1.77636e-15 1.77636e-15 
1861 1 0 0 0 
1862 2 0 0 0 
1863 3 0 0 0 
1864 4 0 0 0 
1865 5 0 0 0 
1866 6 0 0 0 
1867 5 0 0 0 
1868 6 0 0 0 
1869 5 8.88178e-16 0 0 
1870 6 8.88178e-16 0 0 
1871 1 0 0 0 
1872 2 0 0 0 
1873 3 0 0 3.55271e-15 
1874 4 0 0 3.55271e-15 
1875 5 0 0 3.55271e-15 
1876 6 0 0 3.55271e-15 
1877 5 0 0 3.55271e-15 
1878 6 0 0 3.55271e-15 
1879 5 0 0 0 
1880 6 0 0 0 
1881 1 0 0 3.55271e-15 
1882 2 0 0 3.55271e-15 
1883 3 0 0 0 
1884 4 0 0 0 
1885 5 0 0 0 
1886 6 0 0 0 
1887 5 0 0 0 
1888 6 0 0 0 
1889 5 0 0 3.55271e-15 
1890 6 0 0 3.55271e-15 
1961 1 0 0 0 
1962 2 0 0 0 
1963 3 -1.77636e-15 0 0 
1964 4 -1.77636e-15 0 0 
1965 5 0 0 0 
1966 6 0 0 0 
1967 5 0 0 0 
1968 6 0 0 0 
1969 5 0 0 0 
1970 6 0 0 0 
1971 1 0 0 0 
1972 2 0 0 0 
1973 3 0 0 8.88178e-16 
1974 4 0 0 8.88178e-16 
1975 5 0 0 8.88178e-16 
1976 6 0 0 8.88178e-16 
1977 5 -1.77636e-15 0 8.88178e-16 
1978 6 -1.77636e-15 0 8.88178e-16 
1979 5 0 0 0 
1980 6 0 0 0 
1981 1 0 -3.55271e-15 0 
1982 2 0 -3.55271e-15 0 
1983 3 0 0 0 
1984 4 0 0 0 
1985 5 0 0 0 
1986 6 0 0 0 
1987 5 0 0 0 
1988 6 0 0 0 
1989 5 0 -3.55271e-15 0 
1990 6 0 -3.55271e-15 0 
1991 1 0 0 1.77636e-15 
1992 2 0 0 1.77636e-15 
1993 3 0 0 0 
1994 4 0 0 0 
1995 5 0 0 0 
1996 6 0 0 0 
1997 5 -1.77636e-15 0 0 
1998 6 -1.77636e-15 0 0 
1999 5 0 0 1.77636e-15 
2000 6 0 0 1.77636e-15 
2001 1 0 0 0 
2002 2 0 0 0 
2003 3 0 0 0 
2004 4 0 0 0 
2005 5 0 0 0 
2006 6 0 0 0 
2007 5 0 0 0 
2008 6 0 0 0 
2009 5 0 0 0 
2010 6 0 0 0 
2011 1 0 0 0 
2012 2 0 0 0 
2013 3 0 -3.55271e-15 3.55271e-15 
2014 4 0 -3.55271e-15 3.55271e-15 
2015 5 0 -3.55271e-15 3.55271e-15 
2016 6 0 -3.55271e-15 3.55271e-15 
2017 5 0 -3.55271e-15 3.55271e-15 
2018 6 0 -3.55271e-15 3.55271e-15 
2019 5 0 0 0 
2020 6 0 0 0 
2021 1 0 -3.55271e-15 3.55271e-15 
2022 2 0 -3.55271e-15 3.55271e-15 
2023 3 0 0 0 
2024 4 0 0 0 
2025 5 0 0 0 
2026 6 0 0 0 
2027 5 0 0 0 
2028 6 0 0 0 
2029 5 8.88178e-16 -3.55271e-15 3.55271e-15 
2030 6 8.88178e-16 -3.55271e-15 3.55271e-15 
2801 1 0 0 0 
2802 2 0 0 0 
2803 3 0 0 0 
2804 4 0 0 0 
2805 5 0 0 0 
2806 6 0 0 0 
2807 5 0 8.67362e-19 0 
2808 6 0 8.67362e-19 0 
2809 5 0 0 0 
2810 6 0 0 0 
2811 1 -1.77636e-15 1.73472e-18 0 
2812 2 -1.77636e-15 1.73472e-18 0 
2813 3 0 0 8.88178e-16 
2814 4 0 0 8.88178e-16 
2815 5 0 0 8.88178e-16 
2816 6 0 0 8.88178e-16 
2817 5 0 3.46945e-18 8.88178e-16 
2818 6 0 3.46945e-18 8.88178e-16 
2819 5 0 0 0 
2820 6 0 0 0 
2821 1 0 3.46945e-18 0 
2822 2 0 3.46945e-18 0 
2823 3 0 0 0 
2824 4 0 0 0 
2825 5 0 0 0 
2826 6 0 0 0 
2827 5 0 1.04083e-17 0 
2828 6 0 1.04083e-17 0 
2829 5 0 0 0 
2830 6 0 0 0 
2831 1 -1.77636e-15 6.93889e-18 1.77636e-15 
2832 2 -1.77636e-15 6.93889e-18 1.77636e-15 
2833 3 0 0 0 
2834 4 0 0 0 
2835 5 1.77636e-15 0 0 
2836 6 1.77636e-15 0 0 
2837 5 0 6.93889e-18 0 
2838 6 0 6.93889e-18 0 
2839 5 -1.77636e-15 0 1.77636e-15 
2840 6 -1.77636e-15 0 1.77636e-15 
2841 1 0 6.93889e-18 0 
2842 2 0 6.93889e-18 0 
2843 3 0 -4.44089e-16 0 
2844 4 0 -4.44089e-16 0 
2845 5 0 -4.44089e-16 0 
2846 6 0 -4.44089e-16 0 
2847 5 0 6.93889e-18 0 
2848 6 0 6.93889e-18 0 
2849 5 0 0 0 
2850 6 0 0 0 
2851 1 0 2.08167e-17 0 
2852 2 0 2.08167e-17 0 
2853 3 0 0 3.55271e-15 
2854 4 0 0 3.55271e-15 
2855 5 1.77636e-15 0 3.55271e-15 
2856 6 1.77636e-15 0 3.55271e-15 
2857 5 0 1.38778e-17 3.55271e-15 
2858 6 0 1.38778e-17 3.55271e-15 
2859 5 0 -4.44089e-16 0 
2860 6 0 -4.44089e-16 0 
2861 1 0 1.38778e-17 3.55271e-15 
2862 2 0 1.38778e-17 3.55271e-15 
2863 3 0 0 0 
2864 4 0 0 0 
2865 5 0 0 0 
2866 6 0 0 0 
2867 5 0 1.38778e-17 0 
2868 6 0 1.38778e-17 0 
2869 5 0 0 3.55271e-15 
2870 6 0 0 3.55271e-15 
2941 1 0 0 0 
2942 2 0 0 0 
2943 3 0 0 0 
2944 4 0 0 0 
2945 5 -1.77636e-15 0 0 
2946 6 -1.77636e-15 0 0 
2947 5 0 -8.88178e-16 0 
2948 6 0 -8.88178e-16 0 
2949 5 0 0 0 
2950 6 0 0 0 
2951 1 0 0 0 
2952 2 0 0 0 
2953 3 0 0 8.88178e-16 
2954 4 0 0 8.88178e-16 
2955 5 0 0 8.88178e-16 
2956 6 0 0 8.88178e-16 
2957 5 0 -8.88178e-16 8.88178e-16 
2958 6 0 -8.88178e-16 8.88178e-16 
2959 5 0 0 0 
2960 6 0 0 0 
2961 1 0 0 0 
2962 2 0 0 0 
2963 3 0 0 0 
2964 4 0 0 0 
2965 5 -1.77636e-15 0 0 
2966 6 -1.77636e-15 0 0 
2967 5 0 0 0 
2968 6 0 0 0 
2969 5 0 0 0 
2970 6 0 0 0 
2971 1 0 0 1.77636e-15 
2972 2 0 0 1.77636e-15 
2973 3 0 0 0 
2974 4 0 0 0 
2975 5 0 0 0 
2976 6 0 0 0 
2977 5 3.55271e-15 0 0 
2978 6 3.55271e-15 0 0 
2979 5 -1.77636e-15 0 1.77636e-15 
2980 6 -1.77636e-15 0 1.77636e-15 
2981 1 0 0 0 
2982 2 0 0 0 
2983 3 0 -1.77636e-15 0 
2984 4 0 -1.77636e-15 0 
2985 5 0 -1.77636e-15 0 
2986 6 0 -1.77636e-15 0 
2987 5 0 0 0 
2988 6 0 0 0 
2989 5 0 0 0 
2990 6 0 0 0 
2991 1 0 0 0 
2992 2 0 0 0 
2993 3 0 0 3.55271e-15 
2994 4 0 0 3.55271e-15 
2995 5 0 0 3.55271e-15 
2996 6 0 0 3.55271e-15 
2997 5 0 0 3.55271e-15 
2998 6 0 0 3.55271e-15 
2999 5 -1.77636e-15 0 0 
3000 6 -1.77636e-15 0 0 
3001 1 1.77636e-15 0 3.55271e-15 
3002 2 1.77636e-15 0 3.55271e-15 
3003 3 0 0 0 
3004 4 0 0 0 
3005 5 0 0 0 
3006 6 0 0 0 
3007 5 0 0 0 
3008 6 0 0 0 
3009 5 0 0 3.55271e-15 
3010 6 0 0 3.55271e-15 
3081 1 0 0 0 
3082 2 0 0 0 
3083 3 0 0 0 
3084 4 0 0 0 
3085 5 0 0 0 
3086 6 0 0 0 
3087 5 0 0 0 
3088 6 0 0 0 
3089 5 0 0 0 
3090 6 0 0 0 
3091 1 0 -1.77636e-15 0 
3092 2 0 -1.77636e-15 0 
3093 3 0 0 8.88178e-16 
3094 4 0 0 8.88178e-16 
3095 5 0 0 8.88178e-16 
3096 6 0 0 8.88178e-16 
3097 5 0 0 8.88178e-16 
3098 6 0 0 8.88178e-16 
3099 5 0 -1.77636e-15 0 
3100 6 0 -1.77636e-15 0 
3101 1 0 0 0 
3102 2 0 0 0 
3103 3 0 0 0 
3104 4 0 0 0 
3105 5 0 0 0 
3106 6 0 0 0 
3107 5 -1.77636e-15 0 0 
3108 6 -1.77636e-15 0 0 
3109 5 0 0 0 
3110 6 0 0 0 
3111 1 0 -1.77636e-15 1.77636e-15 
3112 2 0 -1.77636e-15 1.77636e-15 
3113 3 0 0 0 
3114 4 0 0 0 
3115 5 0 0 0 
3116 6 0 0 0 
3117 5 0 0 0 
3118 6 0 0 0 
3119 5 0 -1.77636e-15 1.77636e-15 
3120 6 0 -1.77636e-15 1.77636e-15 
3121 1 0 0 0 
3122 2 0 0 0 
3123 3 0 0 0 
3124 4 0 0 0 
3125 5 0 0 0 
3126 6 0 0 0 
3127 5 0 0 0 
3128 6 0 0 0 
3129 5 0 0 0 
3130 6 0 0 0 
3131 1 0 0 0 
3132 2 0 0 0 
3133 3 0 0 3.55271e-15 
3134 4 0 0 3.55271e-15 
3135 5 1.77636e-15 0 3.55271e-15 
3136 6 1.77636e-15 0 3.55271e-15 
3137 5 0 0 3.55271e-15 
3138 6 0 0 3.55271e-15 
3139 5 0 0 0 
3140 6 0 0 0 
3141 1 0 0 3.55271e-15 
3142 2 0 0 3.55271e-15 
3143 3 0 0 0 
3144 4 0 0 0 
3145 5 0 0 0 
3146 6 0 0 0 
3147 5 0 0 0 
3148 6 0 0 0 
3149 5 0 0 3.55271e-15 
3150 6 0 0 3.55271e-15 
3221 1 0 0 0 
3222 2 0 0 0 
3223 3 0 0 0 
3224 4 0 0 0 
3225 5 -1.77636e-15 0 0 
3226 6 -1.77636e-15 0 0 
3227 5 0 0 0 
3228 6 0 0 0 
3229 5 0 0 0 
3230 6 0 0 0 
3231 1 0 0 0 
3232 2 0 0 0 
3233 3 -1.77636e-15 0 8.88178e-16 
3234 4 -1.77636e-15 0 8.88178e-16 
3235 5 0 0 8.88178e-16 
3236 6 0 0 8.88178e-16 
3237 5 0 0 8.88178e-16 
3238 6 0 0 8.88178e-16 
3239 5 0 0 0 
3240 6 0 0 0 
3241 1 0 0 0 
3242 2 0 0 0 
3243 3 -1.77636e-15 -1.77636e-15 0 
3244 4 -1.77636e-15 -1.77636e-15 0 
3245 5 -1.77636e-15 -1.77636e-15 0 
3246 6 -1.77636e-15 -1.77636e-15 0 
3247 5 0 0 0 
3248 6 0 0 0 
3249 5 -1.77636e-15 0 0 
3250 6 -1.77636e-15 0 0 
3251 1 0 0 1.77636e-15 
3252 2 0 0 1.77636e-15 
3253 3 0 0 0 
3254 4 0 0 0 
3255 5 0 0 0 
3256 6 0 0 0 
3257 5 3.55271e-15 0 0 
3258 6 3.55271e-15 0 0 
3259 5 -1.77636e-15 -1.77636e-15 1.77636e-15 
3260 6 -1.77636e-15 -1.77636e-15 1.77636e-15 
3261 1 0 0 0 
3262 2 0 0 0 
3263 3 0 0 0 
3264 4 0 0 0 
3265 5 0 0 0 
3266 6 0 0 0 
3267 5 0 0 0 
3268 6 0 0 0 
3269 5 0 0 0 
3270 6 0 0 0 
3271 1 0 0 0 
3272 2 0 0 0 
3273 3 0 0 3.55271e-15 
3274 4 0 0 3.55271e-15 
3275 5 0 0 3.55271e-15 
3276 6 0 0 3.55271e-15 
3277 5 0 0 3.55271e-15 
3278 6 0 0 3.55271e-15 
3279 5 0 0 0 
3280 6 0 0 0 
3281 1 0 0 3.55271e-15 
3282 2 0 0 3.55271e-15 
3283 3 0 0 0 
3284 4 0 0 0 
3285 5 0 0 0 
3286 6 0 0 0 
3287 5 0 0 0 
3288 6 0 0 0 
3289 5 0 0 3.55271e-15 
3290 6 0 0 3.55271e-15 
3361 1 0 0 0 
3362 2 0 0 0 
3363 3 0 0 0 
3364 4 0 0 0 
3365 5 0 0 0 
3366 6 0 0 0 
3367 5 0 0 0 
3368 6 0 0 0 
3369 5 0 0 0 
3370 6 0 0 0 
3371 1 0 0 0 
3372 2 0 0 0 
3373 3 0 0 8.88178e-16 
3374 4 0 0 8.88178e-16 
3375 5 0 0 8.88178e-16 
3376 6 0 0 8.88178e-16 
3377 5 0 0 8.88178e-16 
3378 6 0 0 8.88178e-16 
3379 5 0 0 0 
3380 6 0 0 0 
3381 1 0 -3.55271e-15 0 
3382 2 0 -3.55271e-15 0 
3383 3 0 0 0 
3384 4 0 0 0 
3385 5 0 0 0 
3386 6 0 0 0 
3387 5 -1.77636e-15 0 0 
3388 6 -1.77636e-15 0 0 
3389 5 0 -3.55271e-15 0 
3390 6 0 -3.55271e-15 0 
3391 1 0 0 1.77636e-15 
3392 2 0 0 1.77636e-15 
3393 3 0 0 0 
3394 4 0 0 0 
3395 5 0 0 0 
3396 6 0 0 0 
3397 5 0 0 0 
3398 6 0 0 0 
3399 5 0 0 1.77636e-15 
3400 6 0 0 1.77636e-15 
3401 1 0 0 0 
3402 2 0 0 0 
3403 3 0 0 0 
3404 4 0 0 0 
3405 5 0 0 0 
3406 6 0 0 0 
3407 5 0 0 0 
3408 6 0 0 0 
3409 5 0 0 0 
3410 6 0 0 0 
3411 1 0 0 0 
3412 2 0 0 0 
3413 3 0 -3.55271e-15 3.55271e-15 
3414 4 0 -3.55271e-15 3.55271e-15 
3415 5 0 -3.55271e-15 3.55271e-15 
3416 6 0 -3.55271e-15 3.55271e-15 
3417 5 0 -3.55271e-15 3.55271e-15 
3418 6 0 -3.55271e-15 3.55271e-15 
3419 5 0 0 0 
3420 6 0 0 0 
3421 1 0 -3.55271e-15 3.55271e-15 
3422 2 0 -3.55271e-15 3.55271e-15 
3423 3 0 0 0 
3424 4 0 0 0 
3425 5 0 0 0 
3426 6 0 0 0 
3427 5 0 0 0 
3428 6 0 0 0 
3429 5 0 -3.55271e-15 3.55271e-15 
3430 6 0 -3.55271e-15 3.55271e-15 
4201 1 0 0 0 
4202 2 0 0 0 
4203 3 0 0 0 
4204 4 0 0 0 
4205 5 0 0 0 
4206 6 0 0 0 
4207 5 0 8.67362e-19 0 
4208 6 0 8.67362e-19 0 
4209 5 0 0 0 
4210 6 0 0 0 
4211 1 0 1.73472e-18 0 
4212 2 0 1.73472e-18 0 
4213 3 0 0 8.88178e-16 
4214 4 0 0 8.88178e-16 
4215 5 0 0 8.88178e-16 
4216 6 0 0 8.88178e-16 
4217 5 0 3.46945e-18 8.88178e-16 
4218 6 0 3.46945e-18 8.88178e-16 
4219 5 0 0 0 
4220 6 0 0 0 
4221 1 0 3.46945e-18 0 
4222 2 0 3.46945e-18 0 
4223 3 0 0 0 
4224 4 0 0 0 
4225 5 0 0 0 
4226 6 0 0 0 
4227 5 -1.77636e-15 1.04083e-17 0 
4228 6 -1.77636e-15 1.04083e-17 0 
4229 5 0 0 0 
4230 6 0 0 0 
4231 1 0 6.93889e-18 1.77636e-15 
4232 2 0 6.93889e-18 1.77636e-15 
4233 3 0 0 0 
4234 4 0 0 0 
4235 5 0 0 0 
4236 6 0 0 0 
4237 5 0 6.93889e-18 0 
4238 6 0 6.93889e-18 0 
4239 5 -1.77636e-15 0 1.77636e-15 
4240 6 -1.77636e-15 0 1.77636e-15 
4241 1 0 6.93889e-18 0 
4242 2 0 6.93889e-18 0 
4243 3 0 -4.44089e-16 0 
4244 4 0 -4.44089e-16 0 
4245 5 0 -4.44089e-16 0 
4246 6 0 -4.44089e-16 0 
4247 5 0 6.93889e-18 0 
4248 6 0 6.93889e-18 0 
4249 5 0 0 0 
4250 6 0 0 0 
4251 1 0 2.08167e-17 0 
4252 2 0 2.08167e-17 0 
4253 3 0 0 3.55271e-15 
4254 4 0 0 3.55271e-15 
4255 5 0 0 3.55271e-15 
4256 6 0 0 3.55271e-15 
4257 5 0 1.38778e-17 3.55271e-15 
4258 6 0 1.38778e-17 3.55271e-15 
4259 5 0 -4.44089e-16 0 
4260 6 0 -4.44089e-16 0 
4261 1 0 1.38778e-17 3.55271e-15 
4262 2 0 1.38778e-17 3.55271e-15 
4263 3 0 0 0 
4264 4 0 0 0 
4265 5 0 0 0 
4266 6 0 0 0 
4267 5 0 1.38778e-17 0 
4268 6 0 1.38778e-17 0 
4269 5 0 0 3.55271e-15 
4270 6 0 0 3.55271e-15 
4341 1 0 0 0 
4342 2 0 0 0 
4343 3 0 0 0 
4344 4 0 0 0 
4345 5 0 0 0 
4346 6 0 0 0 
4347 5 0 -8.88178e-16 0 
4348 6 0 -8.88178e-16 0 
4349 5 0 0 0 
4350 6 0 0 0 
4351 1 0 0 0 
4352 2 0 0 0 
4353 3 0 0 8.88178e-16 
4354 4 0 0 8.88178e-16 
4355 5 0 0 8.88178e-16 
4356 6 0 0 8.88178e-16 
4357 5 0 -8.88178e-16 8.88178e-16 
4358 6 0 -8.88178e-16 8.88178e-16 
4359 5 0 0 0 
4360 6 0 0 0 
4361 1 0 0 0 
4362 2 0 0 0 
4363 3 -1.77636e-15 0 0 
4364 4 -1.77636e-15 0 0 
4365 5 0 0 0 
4366 6 0 0 0 
4367 5 0 0 0 
4368 6 0 0 0 
4369 5 -1.77636e-15 0 0 
4370 6 -1.77636e-15 0 0 
4371 1 0 0 1.77636e-15 
4372 2 0 0 1.77636e-15 
4373 3 0 0 0 
4374 4 0 0 0 
4375 5 0 0 0 
4376 6 0 0 0 
4377 5 1.77636e-15 0 0 
4378 6 1.77636e-15 0 0 
4379 5 -1.77636e-15 0 1.77636e-15 
4380 6 -1.77636e-15 0 1.77636e-15 
4381 1 0 0 0 
4382 2 0 0 0 
4383 3 0 -1.77636e-15 0 
4384 4 0 -1.77636e-15 0 
4385 5 0 -1.77636e-15 0 
4386 6 0 -1.77636e-15 0 
4387 5 0 0 0 
4388 6 0 0 0 
4389 5 0 0 0 
4390 6 0 0 0 
4391 1 0 0 0 
4392 2 0 0 0 
4393 3 0 0 3.55271e-15 
4394 4 0 0 3.55271e-15 
4395 5 0 0 3.55271e-15 
4396 6 0 0 3.55271e-15 
4397 5 0 0 3.55271e-15 
4398 6 0 0 3.55271e-15 
4399 5 -1.77636e-15 0 0 
4400 6 -1.77636e-15 0 0 
4401 1 0 0 3.55271e-15 
4402 2 0 0 3.55271e-15 
4403 3 0 0 0 
4404 4 0 0 0 
4405 5 0 0 0 
4406 6 0 0 0 
4407 5 0 0 0 
4408 6 0 0 0 
4409 5 0 0 3.55271e-15 
4410 6 0 0 3.55271e-15 
4481 1 0 0 0 
4482 2 0 0 0 
4483 3 0 0 0 
4484 4 0 0 0 
4485 5 0 0 0 
4486 6 0 0 0 
4487 5 0 0 0 
4488 6 0 0 0 
4489 5 0 0 0 
4490 6 0 0 0 
4491 1 0 -1.77636e-15 0 
4492 2 0 -1.77636e-15 0 
4493 3 0 0 8.88178e-16 
4494 4 0 0 8.88178e-16 
4495 5 0 0 8.88178e-16 
4496 6 0 0 8.88178e-16 
4497 5 0 0 8.88178e-16 
4498 6 0 0 8.88178e-16 
4499 5 0 -1.77636e-15 0 
4500 6 0 -1.77636e-15 0 
4501 1 0 0 0 
4502 2 0 0 0 
4503 3 0 0 0 
4504 4 0 0 0 
4505 5 0 0 0 
4506 6 0 0 0 
4507 5 -1.77636e-15 0 0 
4508 6 -1.77636e-15 0 0 
4509 5 0 0 0 
4510 6 0 0 0 
4511 1 -3.55271e-15 -1.77636e-15 1.77636e-15 
4512 2 -3.55271e-15 -1.77636e-15 1.77636e-15 
4513 3 0 0 0 
4514 4 0 0 0 
4515 5 0 0 0 
4516 6 0 0 0 
4517 5 0 0 0 
4518 6 0 0 0 
4519 5 0 -1.77636e-15 1.77636e-15 
4520 6 0 -1.77636e-15 1.77636e-15 
4521 1 0 0 0 
4522 2 0 0 0 
4523 3 0 0 0 
4524 4 0 0 0 
4525 5 0 0 0 
4526 6 0 0 0 
4527 5 0 0 0 
4528 6 0 0 0 
4529 5 0 0 0 
4530 6 0 0 0 
4531 1 0 0 0 
4532 2 0 0 0 
4533 3 0 0 3.55271e-15 
4534 4 0 0 3.55271e-15 
4535 5 0 0 3.55271e-15 
4536 6 0 0 3.55271e-15 
4537 5 0 0 3.55271e-15 
4538 6 0 0 3.55271e-15 
4539 5 0 0 0 
4540 6 0 0 0 
4541 1 0 0 3.55271e-15 
4542 2 0 0 3.55271e-15 
4543 3 0 0 0 
4544 4 0 0 0 
4545 5 0 0 0 
4546 6 0 0 0 
4547 5 0 0 0 
4548 6 0 0 0 
4549 5 0 0 3.55271e-15 
4550 6 0 0 3.55271e-15 
4621 1 0 0 0 
4622 2 0 0 0 
4623 3 0 0 0 
4624 4 0 0 0 
4625 5 0 0 0 
4626 6 0 0 0 
4627 5 0 0 0 
4628 6 0 0 0 
4629 5 0 0 0 
4630 6 0 0 0 
4631 1 0 0 0 
4632 2 0 0 0 
4633 3 -1.77636e-15 0 8.88178e-16 
4634 4 -1.77636e-15 0 8.88178e-16 
4635 5 0 0 8.88178e-16 
4636 6 0 0 8.88178e-16 
4637 5 0 0 8.88178e-16 
4638 6 0 0 8.88178e-16 
4639 5 0 0 0 
4640 6 0 0 0 
4641 1 0 0 0 
4642 2 0 0 0 
4643 3 -1.77636e-15 -1.77636e-15 0 
4644 4 -1.77636e-15 -1.77636e-15 0 
4645 5 -3.55271e-15 -1.77636e-15 0 
4646 6 -3.55271e-15 -1.77636e-15 0 
4647 5 0 0 0 
4648 6 0 0 0 
4649 5 -1.77636e-15 0 0 
4650 6 -1.77636e-15 0 0 
4651 1 0 0 1.77636e-15 
4652 2 0 0 1.77636e-15 
4653 3 0 0 0 
4654 4 0 0 0 
4655 5 0 0 0 
4656 6 0 0 0 
4657 5 1.77636e-15 0 0 
4658 6 1.77636e-15 0 0 
4659 5 -1.77636e-15 -1.77636e-15 1.77636e-15 
4660 6 -1.77636e-15 -1.77636e-15 1.77636e-15 
4661 1 0 0 0 
4662 2 0 0 0 
4663 3 0 0 0 
4664 4 0 0 0 
4665 5 0 0 0 
4666 6 0 0 0 
4667 5 0 0 0 
4668 6 0 0 0 
4669 5 0 0 0 
4670 6 0 0 0 
4671 1 0 0 0 
4672 2 0 0 0 
4673 3 0 0 3.55271e-15 
4674 4 0 0 3.55271e-15 
4675 5 0 0 3.55271e-15 
4676 6 0 0 3.55271e-15 
4677 5 0 0 3.55271e-15 
4678 6 0 0 3.55271e-15 
4679 5 0 0 0 
4680 6 0 0 0 
4681 1 0 0 3.55271e-15 
4682 2 0 0 3.55271e-15 
4683 3 0 0 0 
4684 4 0 0 0 
4685 5 0 0 0 
4686 6 0 0 0 
4687 5 0 0 0 
4688 6 0 0 0 
4689 5 0 0 3.55271e-15 
4690 6 0 0 3.55271e-15 
4761 1 0 0 0 
4762 2 0 0 0 
4763 3 0 0 0 
4764 4 0 0 0 
4765 5 0 0 0 
4766 6 0 0 0 
4767 5 0 0 0 
4768 6 0 0 0 
4769 5 0 0 0 
4770 6 0 0 0 
4771 1 0 0 0 
4772 2 0 0 0 
4773 3 0 0 8.88178e-16 
4774 4 0 0 8.88178e-16 
4775 5 0 0 8.88178e-16 
4776 6 0 0 8.88178e-16 
4777 5 0 0 8.88178e-16 
4778 6 0 0 8.88178e-16 
4779 5 0 0 0 
4780 6 0 0 0 
4781 1 0 -3.55271e-15 0 
4782 2 0 -3.55271e-15 0 
4783 3 0 0 0 
4784 4 0 0 0 
4785 5 0 0 0 
4786 6 0 0 0 
4787 5 -1.77636e-15 0 0 
4788 6 -1.77636e-15 0 0 
4789 5 0 -3.55271e-15 0 
4790 6 0 -3.55271e-15 0 
4791 1 -3.55271e-15 0 1.77636e-15 
4792 2 -3.55271e-15 0 1.77636e-15 
4793 3 0 0 0 
4794 4 0 0 0 
4795 5 0 0 0 
4796 6 0 0 0 
4797 5 0 0 0 
4798 6 0 0 0 
4799 5 0 0 1.77636e-15 
4800 6 0 0 1.77636e-15 
4801 1 0 0 0 
4802 2 0 0 0 
4803 3 0 0 0 
4804 4 0 0 0 
4805 5 0 0 0 
4806 6 0 0 0 
4807 5 0 0 0 
4808 6 0 0 0 
4809 5 0 0 0 
4810 6 0 0 0 
4811 1 0 0 0 
4812 2 0 0 0 
4813 3 0 -3.55271e-15 3.55271e-15 
4814 4 0 -3.55271e-15 3.55271e-15 
4815 5 0 -3.55271e-15 3.55271e-15 
4816 6 0 -3.55271e-15 3.55271e-15 
4817 5 0 -3.55271e-15 3.55271e-15 
4818 6 0 -3.55271e-15 3.55271e-15 
4819 5 0 0 0 
4820 6 0 0 0 
4821 1 0 -3.55271e-15 3.55271e-15 
4822 2 0 -3.55271e-15 3.55271e-15 
4823 3 0 0 0 
4824 4 0 0 0 
4825 5 0 0 0 
4826 6 0 0 0 
4827 5 0 0 0 
4828 6 0 0 0 
4829 5 0 -3.55271e-15 3.55271e-15 
4830 6 0 -3.55271e-15 3.55271e-15 
5601 1 0 0 0 
5602 2 0 0 0 
5603 3 0 0 0 
5604 4 0 0 0 
5605 5 0 0 0 
5606 6 0 0 0 
5607 5 0 8.67362e-19 0 
5608 6 0 8.67362e-19 0 
5609 5 0 0 0 
5610 6 0 0 0 
5611 1 0 1.73472e-18 0 
5612 2 0 1.73472e-18 0 
5613 3 0 0 8.88178e-16 
5614 4 0 0 8.88178e-16 
5615 5 0 0 8.88178e-16 
5616 6 0 0 8.88178e-16 
5617 5 0 3.46945e-18 8.88178e-16 
5618 6 0 3.46945e-18 8.88178e-16 
5619 5 0 0 0 
5620 6 0 0 0 
5621 1 -3.55271e-15 3.46945e-18 0 
5622 2 -3.55271e-15 3.46945e-18 0 
5623 3 0 0 0 
5624 4 0 0 0 
5625 5 0 0 0 
5626 6 0 0 0 
5627 5 0 1.04083e-17 0 
5628 6 0 1.04083e-17 0 
5629 5 0 0 0 
5630 6 0 0 0 
5631 1 0 6.93889e-18 1.77636e-15 
5632 2 0 6.93889e-18 1.77636e-15 
5633 3 0 0 0 
5634 4 0 0 0 
5635 5 0 0 0 
5636 6 0 0 0 
5637 5 0 6.93889e-18 0 
5638 6 0 6.93889e-18 0 
5639 5 0 0 1.77636e-15 
5640 6 0 0 1.77636e-15 
5641 1 0 6.93889e-18 0 
5642 2 0 6.93889e-18 0 
5643 3 0 -4.44089e-16 0 
5644 4 0 -4.44089e-16 0 
5645 5 0 -4.44089e-16 0 
5646 6 0 -4.44089e-16 0 
5647 5 0 6.93889e-18 0 
5648 6 0 6.93889e-18 0 
5649 5 0 0 0 
5650 6 0 0 0 
5651 1 0 2.08167e-17 0 
5652 2 0 2.08167e-17 0 
5653 3 0 0 3.55271e-15 
5654 4 0 0 3.55271e-15 
5655 5 0 0 3.55271e-15 
5656 6 0 0 3.55271e-15 
5657 5 0 1.38778e-17 3.55271e-15 
5658 6 0 1.38778e-17 3.55271e-15 
5659 5 0 -4.44089e-16 0 
5660 6 0 -4.44089e-16 0 
5661 1 -3.55271e-15 1.38778e-17 3.55271e-15 
5662 2 -3.55271e-15 1.38778e-17 3.55271e-15 
5663 3 0 0 0 
5664 4 0 0 0 
5665 5 3.55271e-15 0 0 
5666 6 3.55271e-15 0 0 
5667 5 0 1.38778e-17 0 
5668 6 0 1.38778e-17 0 