ITEM: TIMESTEP
0
ITEM: NUMBER OF ATOMS
2520
ITEM: BOX BOUNDS xy xz yz pp pp ss
0.0000000000000000e+00 2.4232869309590200e+01 9.3083474394699994e-02
0.0000000000000000e+00 2.4139785835195500e+01 7.9785835195500004e-02
-1.3037754166769078e-02 2.6078037754166775e+01 7.9785835195500004e-02
ITEM: ATOMS id type xs ys zs
1 1 2.53943e-08 2.54929e-08 9.99815e-05
2 2 2.53943e-08 2.54929e-08 9.99815e-05
3 3 0.0833334 0.0833334 0.0770077
4 4 0.0833334 0.0833334 0.0770077
5 5 2.14875e-08 0.0833334 0.0770077
6 6 2.14875e-08 0.0833334 0.0770077
7 5 0.0833334 2.15709e-08 0.0770077
8 6 0.0833334 2.15709e-08 0.0770077
9 5 0.0833334 0.0833334 9.99815e-05
10 6 0.0833334 0.0833334 9.99815e-05
11 1 1.75807e-08 1.76489e-08 0.153915
12 2 1.75807e-08 1.76489e-08 0.153915
13 3 0.0833333 0.0833333 0.230823
14 4 0.0833333 0.0833333 0.230823
15 5 1.36739e-08 0.0833333 0.230823
16 6 1.36739e-08 0.0833333 0.230823
17 5 0.0833333 1.3727e-08 0.230823
18 6 0.0833333 1.3727e-08 0.230823
19 5 0.0833334 0.0833334 0.153915
20 6 0.0833334 0.0833334 0.153915
21 1 9.76704e-09 9.80497e-09 0.307731
22 2 9.76704e-09 9.80497e-09 0.307731
23 3 0.0833333 0.0833333 0.384638
24 4 0.0833333 0.0833333 0.384638
25 5 5.86022e-09 0.0833333 0.384638
26 6 5.86022e-09 0.0833333 0.384638
27 5 0.0833333 5.88298e-09 0.384638
28 6 0.0833333 5.88298e-09 0.384638
29 5 0.0833333 0.0833333 0.307731
30 6 0.0833333 0.0833333 0.307731
31 1 1.95341e-09 1.96099e-09 0.461546
32 2 1.95341e-09 1.96099e-09 0.461546
39 5 0.0833333 0.0833333 0.461546
40 6 0.0833333 0.0833333 0.461546
71 1 2.53943e-08 0.166667 9.99815e-05
72 2 2.53943e-08 0.166667 9.99815e-05
73 3 0.0833334 0.25 0.0770077
74 4 0.0833334 0.25 0.0770077
75 5 2.14875e-08 0.25 0.0770077
76 6 2.14875e-08 0.25 0.0770077
77 5 0.0833334 0.166667 0.0770077
78 6 0.0833334 0.166667 0.0770077
79 5 0.0833334 0.25 9.99815e-05
80 6 0.0833334 0.25 9.99815e-05
81 1 1.75807e-08 0.166667 0.153915
82 2 1.75807e-08 0.166667 0.153915
83 3 0.0833333 0.25 0.230823
84 4 0.0833333 0.25 0.230823
85 5 1.36739e-08 0.25 0.230823
86 6 1.36739e-08 0.25 0.230823
87 5 0.0833333 0.166667 0.230823
88 6 0.0833333 0.166667 0.230823
89 5 0.0833334 0.25 0.153915
90 6 0.0833334 0.25 0.153915
91 1 9.76704e-09 0.166667 0.307731
92 2 9.76704e-09 0.166667 0.307731
93 3 0.0833333 0.25 0.384638
94 4 0.0833333 0.25 0.384638
95 5 5.86022e-09 0.25 0.384638
96 6 5.86022e-09 0.25 0.384638
97 5 0.0833333 0.166667 0.384638
98 6 0.0833333 0.166667 0.384638
99 5 0.0833333 0.25 0.307731
100 6 0.0833333 0.25 0.307731
101 1 1.95341e-09 0.166667 0.461546
102 2 1.95341e-09 0.166667 0.461546
109 5 0.0833333 0.25 0.461546
110 6 0.0833333 0.25 0.461546
141 1 2.53943e-08 0.333333 9.99815e-05
142 2 2.53943e-08 0.333333 9.99815e-05
143 3 0.0833334 0.416667 0.0770077
144 4 0.0833334 0.416667 0.0770077
145 5 2.14875e-08 0.416667 0.0770077
146 6 2.14875e-08 0.416667 0.0770077
147 5 0.0833334 0.333333 0.0770077
148 6 0.0833334 0.333333 0.0770077
149 5 0.0833334 0.416667 9.99815e-05
150 6 0.0833334 0.416667 9.99815e-05
151 1 1.75807e-08 0.333333 0.153915
152 2 1.75807e-08 0.333333 0.153915
153 3 0.0833333 0.416667 0.230823
154 4 0.0833333 0.416667 0.230823
155 5 1.36739e-08 0.416667 0.230823
156 6 1.36739e-08 0.416667 0.230823
157 5 0.0833333 0.333333 0.230823
158 6 0.0833333 0.333333 0.230823
159 5 0.0833334 0.416667 0.153915
160 6 0.0833334 0.416667 0.153915
161 1 9.76704e-09 0.333333 0.307731
162 2 9.76704e-09 0.333333 0.307731
163 3 0.0833333 0.416667 0.384638
164 4 0.0833333 0.416667 0.384638
165 5 5.86022e-09 0.416667 0.384638
166 6 5.86022e-09 0.416667 0.384638
167 5 0.0833333 0.333333 0.384638
168 6 0.0833333 0.333333 0.384638
169 5 0.0833333 0.416667 0.307731
170 6 0.0833333 0.416667 0.307731
171 1 1.95341e-09 0.333333 0.461546
172 2 1.95341e-09 0.333333 0.461546
179 5 0.0833333 0.416667 0.461546
180 6 0.0833333 0.416667 0.461546
421 1 0.166667 2.54929e-08 9.99815e-05
422 2 0.166667 2.54929e-08 9.99815e-05
423 3 0.25 0.0833334 0.0770077
424 4 0.25 0.0833334 0.0770077
425 5 0.166667 0.0833334 0.0770077
426 6 0.166667 0.0833334 0.0770077
427 5 0.25 2.15709e-08 0.0770077
428 6 0.25 2.15709e-08 0.0770077
429 5 0.25 0.0833334 9.99815e-05
430 6 0.25 0.0833334 9.99815e-05
431 1 0.166667 1.76489e-08 0.153915
432 2 0.166667 1.76489e-08 0.153915
433 3 0.25 0.0833333 0.230823
434 4 0.25 0.0833333 0.230823
435 5 0.166667 0.0833333 0.230823
436 6 0.166667 0.0833333 0.230823
437 5 0.25 1.3727e-08 0.230823
438 6 0.25 1.3727e-08 0.230823
439 5 0.25 0.0833334 0.153915
440 6 0.25 0.0833334 0.153915
441 1 0.166667 9.80497e-09 0.307731
442 2 0.166667 9.80497e-09 0.307731
443 3 0.25 0.0833333 0.384638
444 4 0.25 0.0833333 0.384638
445 5 0.166667 0.0833333 0.384638
446 6 0.166667 0.0833333 0.384638
447 5 0.25 5.88298e-09 0.384638
448 6 0.25 5.88298e-09 0.384638
449 5 0.25 0.0833333 0.307731
450 6 0.25 0.0833333 0.307731
451 1 0.166667 1.96099e-09 0.461546
452 2 0.166667 1.96099e-09 0.461546
459 5 0.25 0.0833333 0.461546
460 6 0.25 0.0833333 0.461546
491 1 0.166667 0.166667 9.99815e-05
492 2 0.166667 0.166667 9.99815e-05
493 3 0.25 0.25 0.0770077
494 4 0.25 0.25 0.0770077
495 5 0.166667 0.25 0.0770077
496 6 0.166667 0.25 0.0770077
497 5 0.25 0.166667 0.0770077
498 6 0.25 0.166667 0.0770077
499 5 0.25 0.25 9.99815e-05
500 6 0.25 0.25 9.99815e-05
501 1 0.166667 0.166667 0.153915
502 2 0.166667 0.166667 0.153915
503 3 0.25 0.25 0.230823
504 4 0.25 0.25 0.230823
505 5 0.166667 0.25 0.230823
506 6 0.166667 0.25 0.230823
507 5 0.25 0.166667 0.230823
508 6 0.25 0.166667 0.230823
509 5 0.25 0.25 0.153915
510 6 0.25 0.25 0.153915
511 1 0.166667 0.166667 0.307731
512 2 0.166667 0.166667 0.307731
513 3 0.25 0.25 0.384638
514 4 0.25 0.25 0.384638
515 5 0.166667 0.25 0.384638
516 6 0.166667 0.25 0.384638
517 5 0.25 0.166667 0.384638
518 6 0.25 0.166667 0.384638
519 5 0.25 0.25 0.307731
520 6 0.25 0.25 0.307731
521 1 0.166667 0.166667 0.461546
522 2 0.166667 0.166667 0.461546
529 5 0.25 0.25 0.461546
530 6 0.25 0.25 0.461546
561 1 0.166667 0.333333 9.99815e-05
562 2 0.166667 0.333333 9.99815e-05
563 3 0.25 0.416667 0.0770077
564 4 0.25 0.416667 0.0770077
565 5 0.166667 0.416667 0.0770077
566 6 0.166667 0.416667 0.0770077
567 5 0.25 0.333333 0.0770077
568 6 0.25 0.333333 0.0770077
569 5 0.25 0.416667 9.99815e-05
570 6 0.25 0.416667 9.99815e-05
571 1 0.166667 0.333333 0.153915
572 2 0.166667 0.333333 0.153915
573 3 0.25 0.416667 0.230823
574 4 0.25 0.416667 0.230823
575 5 0.166667 0.416667 0.230823
576 6 0.166667 0.416667 0.230823
577 5 0.25 0.333333 0.230823
578 6 0.25 0.333333 0.230823
579 5 0.25 0.416667 0.153915
580 6 0.25 0.416667 0.153915
581 1 0.166667 0.333333 0.307731
582 2 0.166667 0.333333 0.307731
583 3 0.25 0.416667 0.384638
584 4 0.25 0.416667 0.384638
585 5 0.166667 0.416667 0.384638
586 6 0.166667 0.416667 0.384638
587 5 0.25 0.333333 0.384638
588 6 0.25 0.333333 0.384638
589 5 0.25 0.416667 0.307731
590 6 0.25 0.416667 0.307731
591 1 0.166667 0.333333 0.461546
592 2 0.166667 0.333333 0.461546
599 5 0.25 0.416667 0.461546
600 6 0.25 0.416667 0.461546
841 1 0.333333 2.54929e-08 9.99815e-05
842 2 0.333333 2.54929e-08 9.99815e-05
843 3 0.416667 0.0833334 0.0770077
844 4 0.416667 0.0833334 0.0770077
845 5 0.333333 0.0833334 0.0770077
846 6 0.333333 0.0833334 0.0770077
847 5 0.416667 2.15709e-08 0.0770077
848 6 0.416667 2.15709e-08 0.0770077
849 5 0.416667 0.0833334 9.99815e-05
850 6 0.416667 0.0833334 9.99815e-05
851 1 0.333333 1.76489e-08 0.153915
852 2 0.333333 1.76489e-08 0.153915
853 3 0.416667 0.0833333 0.230823
854 4 0.416667 0.0833333 0.230823
855 5 0.333333 0.0833333 0.230823
856 6 0.333333 0.0833333 0.230823
857 5 0.416667 1.3727e-08 0.230823
858 6 0.416667 1.3727e-08 0.230823
859 5 0.416667 0.0833334 0.153915
860 6 0.416667 0.0833334 0.153915
861 1 0.333333 9.80497e-09 0.307731
862 2 0.333333 9.80497e-09 0.307731
863 3 0.416667 0.0833333 0.384638
864 4 0.416667 0.0833333 0.384638
865 5 0.333333 0.0833333 0.384638
866 6 0.333333 0.0833333 0.384638
867 5 0.416667 5.88298e-09 0.384638
868 6 0.416667 5.88298e-09 0.384638
869 5 0.416667 0.0833333 0.307731
870 6 0.416667 0.0833333 0.307731
871 1 0.333333 1.96099e-09 0.461546
872 2 0.333333 1.96099e-09 0.461546
879 5 0.416667 0.0833333 0.461546
880 6 0.416667 0.0833333 0.461546
911 1 0.333333 0.166667 9.99815e-05
912 2 0.333333 0.166667 9.99815e-05
913 3 0.416667 0.25 0.0770077
914 4 0.416667 0.25 0.0770077
915 5 0.333333 0.25 0.0770077
916 6 0.333333 0.25 0.0770077
917 5 0.416667 0.166667 0.0770077
918 6 0.416667 0.166667 0.0770077
919 5 0.416667 0.25 9.99815e-05
920 6 0.416667 0.25 9.99815e-05
921 1 0.333333 0.166667 0.153915
922 2 0.333333 0.166667 0.153915
923 3 0.416667 0.25 0.230823
924 4 0.416667 0.25 0.230823
925 5 0.333333 0.25 0.230823
926 6 0.333333 0.25 0.230823
927 5 0.416667 0.166667 0.230823
928 6 0.416667 0.166667 0.230823
929 5 0.416667 0.25 0.153915
930 6 0.416667 0.25 0.153915
931 1 0.333333 0.166667 0.307731
932 2 0.333333 0.166667 0.307731
933 3 0.416667 0.25 0.384638
934 4 0.416667 0.25 0.384638
935 5 0.333333 0.25 0.384638
936 6 0.333333 0.25 0.384638
937 5 0.416667 0.166667 0.384638
938 6 0.416667 0.166667 0.384638
939 5 0.416667 0.25 0.307731
940 6 0.416667 0.25 0.307731
941 1 0.333333 0.166667 0.461546
942 2 0.333333 0.166667 0.461546
949 5 0.416667 0.25 0.461546
950 6 0.416667 0.25 0.461546
981 1 0.333333 0.333333 9.99815e-05
982 2 0.333333 0.333333 9.99815e-05
983 3 0.416667 0.416667 0.0770077
984 4 0.416667 0.416667 0.0770077
985 5 0.333333 0.416667 0.0770077
986 6 0.333333 0.416667 0.0770077
987 5 0.416667 0.333333 0.0770077
988 6 0.416667 0.333333 0.0770077
989 5 0.416667 0.416667 9.99815e-05
990 6 0.416667 0.416667 9.99815e-05
991 1 0.333333 0.333333 0.153915
992 2 0.333333 0.333333 0.153915
993 3 0.416667 0.416667 0.230823
994 4 0.416667 0.416667 0.230823
995 5 0.333333 0.416667 0.230823
996 6 0.333333 0.416667 0.230823
997 5 0.416667 0.333333 0.230823
998 6 0.416667 0.333333 0.230823
999 5 0.416667 0.416667 0.153915
1000 6 0.416667 0.416667 0.153915
1001 1 0.333333 0.333333 0.307731
1002 2 0.333333 0.333333 0.307731
1003 3 0.416667 0.416667 0.384638
1004 4 0.416667 0.416667 0.384638
1005 5 0.333333 0.416667 0.384638
1006 6 0.333333 0.416667 0.384638
1007 5 0.416667 0.333333 0.384638
1008 6 0.416667 0.333333 0.384638
1009 5 0.416667 0.416667 0.307731
1010 6 0.416667 0.416667 0.307731
1011 1 0.333333 0.333333 0.461546
1012 2 0.333333 0.333333 0.461546
1019 5 0.416667 0.416667 0.461546
1020 6 0.416667 0.416667 0.461546
1261 1 0.5 2.54929e-08 9.99815e-05
1262 2 0.5 2.54929e-08 9.99815e-05
1263 3 0.583333 0.0833334 0.0770077
1264 4 0.583333 0.0833334 0.0770077
1265 5 0.5 0.0833334 0.0770077
1266 6 0.5 0.0833334 0.0770077
1267 5 0.583333 2.15709e-08 0.0770077
1268 6 0.583333 2.15709e-08 0.0770077
1269 5 0.583333 0.0833334 9.99815e-05
1270 6 0.583333 0.0833334 9.99815e-05
1271 1 0.5 1.76489e-08 0.153915
1272 2 0.5 1.76489e-08 0.153915
1273 3 0.583333 0.0833333 0.230823
1274 4 0.583333 0.0833333 0.230823
1275 5 0.5 0.0833333 0.230823
1276 6 0.5 0.0833333 0.230823
1277 5 0.583333 1.3727e-08 0.230823
1278 6 0.583333 1.3727e-08 0.230823
1279 5 0.583333 0.0833334 0.153915
1280 6 0.583333 0.0833334 0.153915
1281 1 0.5 9.80497e-09 0.307731
1282 2 0.5 9.80497e-09 0.307731
1283 3 0.583333 0.0833333 0.384638
1284 4 0.583333 0.0833333 0.384638
1285 5 0.5 0.0833333 0.384638
1286 6 0.5 0.0833333 0.384638
1287 5 0.583333 5.88298e-09 0.384638
1288 6 0.583333 5.88298e-09 0.384638
1289 5 0.583333 0.0833333 0.307731
1290 6 0.583333 0.0833333 0.307731
1291 1 0.5 1.96099e-09 0.461546
1292 2 0.5 1.96099e-09 0.461546
1299 5 0.583333 0.0833333 0.461546
1300 6 0.583333 0.0833333 0.461546
1331 1 0.5 0.166667 9.99815e-05
1332 2 0.5 0.166667 9.99815e-05
1333 3 0.583333 0.25 0.0770077
1334 4 0.583333 0.25 0.0770077
1335 5 0.5 0.25 0.0770077
1336 6 0.5 0.25 0.0770077
1337 5 0.583333 0.166667 0.0770077
1338 6 0.583333 0.166667 0.0770077
1339 5 0.583333 0.25 9.99815e-05
1340 6 0.583333 0.25 9.99815e-05
1341 1 0.5 0.166667 0.153915
1342 2 0.5 0.166667 0.153915
1343 3 0.583333 0.25 0.230823
1344 4 0.583333 0.25 0.230823
1345 5 0.5 0.25 0.230823
1346 6 0.5 0.25 0.230823
1347 5 0.583333 0.166667 0.230823
1348 6 0.583333 0.166667 0.230823
1349 5 0.583333 0.25 0.153915
1350 6 0.583333 0.25 0.153915
1351 1 0.5 0.166667 0.307731
1352 2 0.5 0.166667 0.307731
1353 3 0.583333 0.25 0.384638
1354 4 0.583333 0.25 0.384638
1355 5 0.5 0.25 0.384638
1356 6 0.5 0.25 0.384638
1357 5 0.583333 0.166667 0.384638
1358 6 0.583333 0.166667 0.384638
1359 5 0.583333 0.25 0.307731
1360 6 0.583333 0.25 0.307731
1361 1 0.5 0.166667 0.461546
1362 2 0.5 0.166667 0.461546
1369 5 0.583333 0.25 0.461546
1370 6 0.583333 0.25 0.461546
1401 1 0.5 0.333333 9.99815e-05
1402 2 0.5 0.333333 9.99815e-05
1403 3 0.583333 0.416667 0.0770077
1404 4 0.583333 0.416667 0.0770077
1405 5 0.5 0.416667 0.0770077
1406 6 0.5 0.416667 0.0770077
1407 5 0.583333 0.333333 0.0770077
1408 6 0.583333 0.333333 0.0770077
1409 5 0.583333 0.416667 9.99815e-05
1410 6 0.583333 0.416667 9.99815e-05
1411 1 0.5 0.333333 0.153915
1412 2 0.5 0.333333 0.153915
1413 3 0.583333 0.416667 0.230823
1414 4 0.583333 0.416667 0.230823
1415 5 0.5 0.416667 0.230823
1416 6 0.5 0.416667 0.230823
1417 5 0.583333 0.333333 0.230823
1418 6 0.583333 0.333333 0.230823
1419 5 0.583333 0.416667 0.153915
1420 6 0.583333 0.416667 0.153915
1421 1 0.5 0.333333 0.307731
1422 2 0.5 0.333333 0.307731
1423 3 0.583333 0.416667 0.384638
1424 4 0.583333 0.416667 0.384638
1425 5 0.5 0.416667 0.384638
1426 6 0.5 0.416667 0.384638
1427 5 0.583333 0.333333 0.384638
1428 6 0.583333 0.333333 0.384638
1429 5 0.583333 0.416667 0.307731
1430 6 0.583333 0.416667 0.307731
1431 1 0.5 0.333333 0.461546
1432 2 0.5 0.333333 0.461546
1439 5 0.583333 0.416667 0.461546
1440 6 0.583333 0.416667 0.461546
1681 1 0.666667 2.54929e-08 9.99815e-05
1682 2 0.666667 2.54929e-08 9.99815e-05
1683 3 0.75 0.0833334 0.0770077
1684 4 0.75 0.0833334 0.0770077
1685 5 0.666667 0.0833334 0.0770077
1686 6 0.666667 0.0833334 0.0770077
1687 5 0.75 2.15709e-08 0.0770077
1688 6 0.75 2.15709e-08 0.0770077
1689 5 0.75 0.0833334 9.99815e-05
1690 6 0.75 0.0833334 9.99815e-05
1691 1 0.666667 1.76489e-08 0.153915
1692 2 0.666667 1.76489e-08 0.153915
1693 3 0.75 0.0833333 0.230823
1694 4 0.75 0.0833333 0.230823
1695 5 0.666667 0.0833333 0.230823
1696 6 0.666667 0.0833333 0.230823
1697 5 0.75 1.3727e-08 0.230823
1698 6 0.75 1.3727e-08 0.230823
1699 5 0.75 0.0833334 0.153915
1700 6 0.75 0.0833334 0.153915
1701 1 0.666667 9.80497e-09 0.307731
1702 2 0.666667 9.80497e-09 0.307731
1703 3 0.75 0.0833333 0.384638
1704 4 0.75 0.0833333 0.384638
1705 5 0.666667 0.0833333 0.384638
1706 6 0.666667 0.0833333 0.384638
1707 5 0.75 5.88298e-09 0.384638
1708 6 0.75 5.88298e-09 0.384638
1709 5 0.75 0.0833333 0.307731
1710 6 0.75 0.0833333 0.307731
1711 1 0.666667 1.96099e-09 0.461546
1712 2 0.666667 1.96099e-09 0.461546
1719 5 0.75 0.0833333 0.461546
1720 6 0.75 0.0833333 0.461546
1751 1 0.666667 0.166667 9.99815e-05
1752 2 0.666667 0.166667 9.99815e-05
1753 3 0.75 0.25 0.0770077
1754 4 0.75 0.25 0.0770077
1755 5 0.666667 0.25 0.0770077
1756 6 0.666667 0.25 0.0770077
1757 5 0.75 0.166667 0.0770077
1758 6 0.75 0.166667 0.0770077
1759 5 0.75 0.25 9.99815e-05
1760 6 0.75 0.25 9.99815e-05
1761 1 0.666667 0.166667 0.153915
1762 2 0.666667 0.166667 0.153915
1763 3 0.75 0.25 0.230823
1764 4 0.75 0.25 0.230823
1765 5 0.666667 0.25 0.230823
1766 6 0.666667 0.25 0.230823
1767 5 0.75 0.166667 0.230823
1768 6 0.75 0.166667 0.230823
1769 5 0.75 0.25 0.153915
1770 6 0.75 0.25 0.153915
1771 1 0.666667 0.166667 0.307731
1772 2 0.666667 0.166667 0.307731
1773 3 0.75 0.25 0.384638
1774 4 0.75 0.25 0.384638
1775 5 0.666667 0.25 0.384638
1776 6 0.666667 0.25 0.384638
1777 5 0.75 0.166667 0.384638
1778 6 0.75 0.166667 0.384638
1779 5 0.75 0.25 0.307731
1780 6 0.75 0.25 0.307731
1781 1 0.666667 0.166667 0.461546
1782 2 0.666667 0.166667 0.461546
1789 5 0.75 0.25 0.461546
1790 6 0.75 0.25 0.461546
1821 1 0.666667 0.333333 9.99815e-05
1822 2 0.666667 0.333333 9.99815e-05
1823 3 0.75 0.416667 0.0770077
1824 4 0.75 0.416667 0.0770077
1825 5 0.666667 0.416667 0.0770077
1826 6 0.666667 0.416667 0.0770077
1827 5 0.75 0.333333 0.0770077
1828 6 0.75 0.333333 0.0770077
1829 5 0.75 0.416667 9.99815e-05
1830 6 0.75 0.416667 9.99815e-05
1831 1 0.666667 0.333333 0.153915
1832 2 0.666667 0.333333 0.153915
1833 3 0.75 0.416667 0.230823
1834 4 0.75 0.416667 0.230823
1835 5 0.666667 0.416667 0.230823
1836 6 0.666667 0.416667 0.230823
1837 5 0.75 0.333333 0.230823
1838 6 0.75 0.333333 0.230823
1839 5 0.75 0.416667 0.153915
1840 6 0.75 0.416667 0.153915
1841 1 0.666667 0.333333 0.307731
1842 2 0.666667 0.333333 0.307731
1843 3 0.75 0.416667 0.384638
1844 4 0.75 0.416667 0.384638
1845 5 0.666667 0.416667 0.384638
1846 6 0.666667 0.416667 0.384638
1847 5 0.75 0.333333 0.384638
1848 6 0.75 0.333333 0.384638
1849 5 0.75 0.416667 0.307731
1850 6 0.75 0.416667 0.307731
1851 1 0.666667 0.333333 0.461546
1852 2 0.666667 0.333333 0.461546
1859 5 0.75 0.416667 0.461546
1860 6 0.75 0.416667 0.461546
2101 1 0.833333 2.54929e-08 9.99815e-05
2102 2 0.833333 2.54929e-08 9.99815e-05
2103 3 0.916667 0.0833334 0.0770077
2104 4 0.916667 0.0833334 0.0770077
2105 5 0.833333 0.0833334 0.0770077
2106 6 0.833333 0.0833334 0.0770077
2107 5 0.916667 2.15709e-08 0.0770077
2108 6 0.916667 2.15709e-08 0.0770077
2109 5 0.916667 0.0833334 9.99815e-05
2110 6 0.916667 0.0833334 9.99815e-05
2111 1 0.833333 1.76489e-08 0.153915
2112 2 0.833333 1.76489e-08 0.153915
2113 3 0.916667 0.0833333 0.230823
2114 4 0.916667 0.0833333 0.230823
2115 5 0.833333 0.0833333 0.230823
2116 6 0.833333 0.0833333 0.230823
2117 5 0.916667 1.3727e-08 0.230823
2118 6 0.916667 1.3727e-08 0.230823
2119 5 0.916667 0.0833334 0.153915
2120 6 0.916667 0.0833334 0.153915
2121 1 0.833333 9.80497e-09 0.307731
2122 2 0.833333 9.80497e-09 0.307731
2123 3 0.916667 0.0833333 0.384638
2124 4 0.916667 0.0833333 0.384638
2125 5 0.833333 0.0833333 0.384638
2126 6 0.833333 0.0833333 0.384638
2127 5 0.916667 5.88298e-09 0.384638
2128 6 0.916667 5.88298e-09 0.384638
2129 5 0.916667 0.0833333 0.307731
2130 6 0.916667 0.0833333 0.307731
2131 1 0.833333 1.96099e-09 0.461546
2132 2 0.833333 1.96099e-09 0.461546
2139 5 0.916667 0.0833333 0.461546
2140 6 0.916667 0.0833333 0.461546
2171 1 0.833333 0.166667 9.99815e-05
2172 2 0.833333 0.166667 9.99815e-05
2173 3 0.916667 0.25 0.0770077
2174 4 0.916667 0.25 0.0770077
2175 5 0.833333 0.25 0.0770077
2176 6 0.833333 0.25 0.0770077
2177 5 0.916667 0.166667 0.0770077
2178 6 0.916667 0.166667 0.0770077
2179 5 0.916667 0.25 9.99815e-05
2180 6 0.916667 0.25 9.99815e-05
2181 1 0.833333 0.166667 0.153915
2182 2 0.833333 0.166667 0.153915
2183 3 0.916667 0.25 0.230823
2184 4 0.916667 0.25 0.230823
2185 5 0.833333 0.25 0.230823
2186 6 0.833333 0.25 0.230823
2187 5 0.916667 0.166667 0.230823
2188 6 0.916667 0.166667 0.230823
2189 5 0.916667 0.25 0.153915
2190 6 0.916667 0.25 0.153915
2191 1 0.833333 0.166667 0.307731
2192 2 0.833333 0.166667 0.307731
2193 3 0.916667 0.25 0.384638
2194 4 0.916667 0.25 0.384638
2195 5 0.833333 0.25 0.384638
2196 6 0.833333 0.25 0.384638
2197 5 0.916667 0.166667 0.384638
2198 6 0.916667 0.166667 0.384638
2199 5 0.916667 0.25 0.307731
2200 6 0.916667 0.25 0.307731
2201 1 0.833333 0.166667 0.461546
2202 2 0.833333 0.166667 0.461546
2209 5 0.916667 0.25 0.461546
2210 6 0.916667 0.25 0.461546
2241 1 0.833333 0.333333 9.99815e-05
2242 2 0.833333 0.333333 9.99815e-05
2243 3 0.916667 0.416667 0.0770077
2244 4 0.916667 0.416667 0.0770077
2245 5 0.833333 0.416667 0.0770077
2246 6 0.833333 0.416667 0.0770077
2247 5 0.916667 0.333333 0.0770077
2248 6 0.916667 0.333333 0.0770077
2249 5 0.916667 0.416667 9.99815e-05
2250 6 0.916667 0.416667 9.99815e-05
2251 1 0.833333 0.333333 0.153915
2252 2 0.833333 0.333333 0.153915
2253 3 0.916667 0.416667 0.230823
2254 4 0.916667 0.416667 0.230823
2255 5 0.833333 0.416667 0.230823
2256 6 0.833333 0.416667 0.230823
2257 5 0.916667 0.333333 0.230823
2258 6 0.916667 0.333333 0.230823
2259 5 0.916667 0.416667 0.153915
2260 6 0.916667 0.416667 0.153915
2261 1 0.833333 0.333333 0.307731
2262 2 0.833333 0.333333 0.307731
2263 3 0.916667 0.416667 0.384638
2264 4 0.916667 0.416667 0.384638
2265 5 0.833333 0.416667 0.384638
2266 6 0.833333 0.416667 0.384638
2267 5 0.916667 0.333333 0.384638
2268 6 0.916667 0.333333 0.384638
2269 5 0.916667 0.416667 0.307731
2270 6 0.916667 0.416667 0.307731
2271 1 0.833333 0.333333 0.461546
2272 2 0.833333 0.333333 0.461546
2279 5 0.916667 0.416667 0.461546
2280 6 0.916667 0.416667 0.461546
33 3 0.0833333 0.0833333 0.538454
34 4 0.0833333 0.0833333 0.538454
35 5 1 0.0833333 0.538454
36 6 1 0.0833333 0.538454
2310 6 0.916667 0.416667 0.922992
2309 5 0.916667 0.416667 0.922992
2308 6 0.916667 0.333333 0.9999
2307 5 0.916667 0.333333 0.9999
43 3 0.0833333 0.0833333 0.692269
44 4 0.0833333 0.0833333 0.692269
45 5 1 0.0833333 0.692269
46 6 1 0.0833333 0.692269
2306 6 0.833333 0.416667 0.9999
2305 5 0.833333 0.416667 0.9999
49 5 0.0833333 0.0833333 0.615362
50 6 0.0833333 0.0833333 0.615362
2304 4 0.916667 0.416667 0.9999
2303 3 0.916667 0.416667 0.9999
53 3 0.0833333 0.0833333 0.846085
54 4 0.0833333 0.0833333 0.846085
55 5 1 0.0833333 0.846085
56 6 1 0.0833333 0.846085
2302 2 0.833333 0.333333 0.922992
2301 1 0.833333 0.333333 0.922992
59 5 0.0833333 0.0833333 0.769177
60 6 0.0833333 0.0833333 0.769177
2300 6 0.916667 0.416667 0.769177
2299 5 0.916667 0.416667 0.769177
63 3 0.0833333 0.0833333 0.9999
64 4 0.0833333 0.0833333 0.9999
65 5 1 0.0833333 0.9999
66 6 1 0.0833333 0.9999
2298 6 0.916667 0.333333 0.846085
2297 5 0.916667 0.333333 0.846085
69 5 0.0833333 0.0833333 0.922992
70 6 0.0833333 0.0833333 0.922992
103 3 0.0833333 0.25 0.538454
104 4 0.0833333 0.25 0.538454
105 5 1 0.25 0.538454
106 6 1 0.25 0.538454
107 5 0.0833333 0.166667 0.538454
108 6 0.0833333 0.166667 0.538454
111 1 1 0.166667 0.615362
112 2 1 0.166667 0.615362
113 3 0.0833333 0.25 0.692269
114 4 0.0833333 0.25 0.692269
115 5 1 0.25 0.692269
116 6 1 0.25 0.692269
117 5 0.0833333 0.166667 0.692269
118 6 0.0833333 0.166667 0.692269
119 5 0.0833333 0.25 0.615362
120 6 0.0833333 0.25 0.615362
121 1 1 0.166667 0.769177
122 2 1 0.166667 0.769177
123 3 0.0833333 0.25 0.846085
124 4 0.0833333 0.25 0.846085
125 5 1 0.25 0.846085
126 6 1 0.25 0.846085
127 5 0.0833333 0.166667 0.846085
128 6 0.0833333 0.166667 0.846085
129 5 0.0833333 0.25 0.769177
130 6 0.0833333 0.25 0.769177
131 1 1 0.166667 0.922992
132 2 1 0.166667 0.922992
133 3 0.0833333 0.25 0.9999
134 4 0.0833333 0.25 0.9999
135 5 1 0.25 0.9999
136 6 1 0.25 0.9999
137 5 0.0833333 0.166667 0.9999
138 6 0.0833333 0.166667 0.9999
139 5 0.0833333 0.25 0.922992
140 6 0.0833333 0.25 0.922992
173 3 0.0833333 0.416667 0.538454
174 4 0.0833333 0.416667 0.538454
175 5 1 0.416667 0.538454
176 6 1 0.416667 0.538454
177 5 0.0833333 0.333333 0.538454
178 6 0.0833333 0.333333 0.538454
181 1 1 0.333333 0.615362
182 2 1 0.333333 0.615362
183 3 0.0833333 0.416667 0.692269
184 4 0.0833333 0.416667 0.692269
185 5 1 0.416667 0.692269
186 6 1 0.416667 0.692269
187 5 0.0833333 0.333333 0.692269
188 6 0.0833333 0.333333 0.692269
189 5 0.0833333 0.416667 0.615362
190 6 0.0833333 0.416667 0.615362
191 1 1 0.333333 0.769177
192 2 1 0.333333 0.769177
193 3 0.0833333 0.416667 0.846085
194 4 0.0833333 0.416667 0.846085
195 5 1 0.416667 0.846085
196 6 1 0.416667 0.846085
197 5 0.0833333 0.333333 0.846085
198 6 0.0833333 0.333333 0.846085
199 5 0.0833333 0.416667 0.769177
200 6 0.0833333 0.416667 0.769177
201 1 1 0.333333 0.922992
202 2 1 0.333333 0.922992
203 3 0.0833333 0.416667 0.9999
204 4 0.0833333 0.416667 0.9999
205 5 1 0.416667 0.9999
206 6 1 0.416667 0.9999
207 5 0.0833333 0.333333 0.9999
208 6 0.0833333 0.333333 0.9999
209 5 0.0833333 0.416667 0.922992
210 6 0.0833333 0.416667 0.922992
453 3 0.25 0.0833333 0.538454
454 4 0.25 0.0833333 0.538454
455 5 0.166667 0.0833333 0.538454
456 6 0.166667 0.0833333 0.538454
2296 6 0.833333 0.416667 0.846085
2295 5 0.833333 0.416667 0.846085
2294 4 0.916667 0.416667 0.846085
2293 3 0.916667 0.416667 0.846085
463 3 0.25 0.0833333 0.692269
464 4 0.25 0.0833333 0.692269
465 5 0.166667 0.0833333 0.692269
466 6 0.166667 0.0833333 0.692269
2292 2 0.833333 0.333333 0.769177
2291 1 0.833333 0.333333 0.769177
469 5 0.25 0.0833333 0.615362
470 6 0.25 0.0833333 0.615362
2290 6 0.916667 0.416667 0.615362
2289 5 0.916667 0.416667 0.615362
473 3 0.25 0.0833333 0.846085
474 4 0.25 0.0833333 0.846085
475 5 0.166667 0.0833333 0.846085
476 6 0.166667 0.0833333 0.846085
2288 6 0.916667 0.333333 0.692269
2287 5 0.916667 0.333333 0.692269
479 5 0.25 0.0833333 0.769177
480 6 0.25 0.0833333 0.769177
2286 6 0.833333 0.416667 0.692269
2285 5 0.833333 0.416667 0.692269
483 3 0.25 0.0833333 0.9999
484 4 0.25 0.0833333 0.9999
485 5 0.166667 0.0833333 0.9999
486 6 0.166667 0.0833333 0.9999
2284 4 0.916667 0.416667 0.692269
2283 3 0.916667 0.416667 0.692269
489 5 0.25 0.0833333 0.922992
490 6 0.25 0.0833333 0.922992
523 3 0.25 0.25 0.538454
524 4 0.25 0.25 0.538454
525 5 0.166667 0.25 0.538454
526 6 0.166667 0.25 0.538454
527 5 0.25 0.166667 0.538454
528 6 0.25 0.166667 0.538454
531 1 0.166667 0.166667 0.615362
532 2 0.166667 0.166667 0.615362
533 3 0.25 0.25 0.692269
534 4 0.25 0.25 0.692269
535 5 0.166667 0.25 0.692269
536 6 0.166667 0.25 0.692269
537 5 0.25 0.166667 0.692269
538 6 0.25 0.166667 0.692269
539 5 0.25 0.25 0.615362
540 6 0.25 0.25 0.615362
541 1 0.166667 0.166667 0.769177
542 2 0.166667 0.166667 0.769177
543 3 0.25 0.25 0.846085
544 4 0.25 0.25 0.846085
545 5 0.166667 0.25 0.846085
546 6 0.166667 0.25 0.846085
547 5 0.25 0.166667 0.846085
548 6 0.25 0.166667 0.846085
549 5 0.25 0.25 0.769177
550 6 0.25 0.25 0.769177
551 1 0.166667 0.166667 0.922992
552 2 0.166667 0.166667 0.922992
553 3 0.25 0.25 0.9999
554 4 0.25 0.25 0.9999
555 5 0.166667 0.25 0.9999
556 6 0.166667 0.25 0.9999
557 5 0.25 0.166667 0.9999
558 6 0.25 0.166667 0.9999
559 5 0.25 0.25 0.922992
560 6 0.25 0.25 0.922992
593 3 0.25 0.416667 0.538454
594 4 0.25 0.416667 0.538454
595 5 0.166667 0.416667 0.538454
596 6 0.166667 0.416667 0.538454
597 5 0.25 0.333333 0.538454
598 6 0.25 0.333333 0.538454
601 1 0.166667 0.333333 0.615362
602 2 0.166667 0.333333 0.615362
603 3 0.25 0.416667 0.692269
604 4 0.25 0.416667 0.692269
605 5 0.166667 0.416667 0.692269
606 6 0.166667 0.416667 0.692269
607 5 0.25 0.333333 0.692269
608 6 0.25 0.333333 0.692269
609 5 0.25 0.416667 0.615362
610 6 0.25 0.416667 0.615362
611 1 0.166667 0.333333 0.769177
612 2 0.166667 0.333333 0.769177
613 3 0.25 0.416667 0.846085
614 4 0.25 0.416667 0.846085
615 5 0.166667 0.416667 0.846085
616 6 0.166667 0.416667 0.846085
617 5 0.25 0.333333 0.846085
618 6 0.25 0.333333 0.846085
619 5 0.25 0.416667 0.769177
620 6 0.25 0.416667 0.769177
621 1 0.166667 0.333333 0.922992
622 2 0.166667 0.333333 0.922992
623 3 0.25 0.416667 0.9999
624 4 0.25 0.416667 0.9999
625 5 0.166667 0.416667 0.9999
626 6 0.166667 0.416667 0.9999
627 5 0.25 0.333333 0.9999
628 6 0.25 0.333333 0.9999
629 5 0.25 0.416667 0.922992
630 6 0.25 0.416667 0.922992
873 3 0.416667 0.0833333 0.538454
874 4 0.416667 0.0833333 0.538454
875 5 0.333333 0.0833333 0.538454
876 6 0.333333 0.0833333 0.538454
2282 2 0.833333 0.333333 0.615362
2281 1 0.833333 0.333333 0.615362
2278 6 0.916667 0.333333 0.538454
2277 5 0.916667 0.333333 0.538454
883 3 0.416667 0.0833333 0.692269
884 4 0.416667 0.0833333 0.692269
885 5 0.333333 0.0833333 0.692269
886 6 0.333333 0.0833333 0.692269
2276 6 0.833333 0.416667 0.538454
2275 5 0.833333 0.416667 0.538454
889 5 0.416667 0.0833333 0.615362
890 6 0.416667 0.0833333 0.615362
2274 4 0.916667 0.416667 0.538454
2273 3 0.916667 0.416667 0.538454
893 3 0.416667 0.0833333 0.846085
894 4 0.416667 0.0833333 0.846085
895 5 0.333333 0.0833333 0.846085
896 6 0.333333 0.0833333 0.846085
2240 6 0.916667 0.25 0.922992
2239 5 0.916667 0.25 0.922992
899 5 0.416667 0.0833333 0.769177
900 6 0.416667 0.0833333 0.769177
2238 6 0.916667 0.166667 0.9999
2237 5 0.916667 0.166667 0.9999
903 3 0.416667 0.0833333 0.9999
904 4 0.416667 0.0833333 0.9999
905 5 0.333333 0.0833333 0.9999
906 6 0.333333 0.0833333 0.9999
2236 6 0.833333 0.25 0.9999
2235 5 0.833333 0.25 0.9999
909 5 0.416667 0.0833333 0.922992
910 6 0.416667 0.0833333 0.922992
943 3 0.416667 0.25 0.538454
944 4 0.416667 0.25 0.538454
945 5 0.333333 0.25 0.538454
946 6 0.333333 0.25 0.538454
947 5 0.416667 0.166667 0.538454
948 6 0.416667 0.166667 0.538454
951 1 0.333333 0.166667 0.615362
952 2 0.333333 0.166667 0.615362
953 3 0.416667 0.25 0.692269
954 4 0.416667 0.25 0.692269
955 5 0.333333 0.25 0.692269
956 6 0.333333 0.25 0.692269
957 5 0.416667 0.166667 0.692269
958 6 0.416667 0.166667 0.692269
959 5 0.416667 0.25 0.615362
960 6 0.416667 0.25 0.615362
961 1 0.333333 0.166667 0.769177
962 2 0.333333 0.166667 0.769177
963 3 0.416667 0.25 0.846085
964 4 0.416667 0.25 0.846085
965 5 0.333333 0.25 0.846085
966 6 0.333333 0.25 0.846085
967 5 0.416667 0.166667 0.846085
968 6 0.416667 0.166667 0.846085
969 5 0.416667 0.25 0.769177
970 6 0.416667 0.25 0.769177
971 1 0.333333 0.166667 0.922992
972 2 0.333333 0.166667 0.922992
973 3 0.416667 0.25 0.9999
974 4 0.416667 0.25 0.9999
975 5 0.333333 0.25 0.9999
976 6 0.333333 0.25 0.9999
977 5 0.416667 0.166667 0.9999
978 6 0.416667 0.166667 0.9999
979 5 0.416667 0.25 0.922992
980 6 0.416667 0.25 0.922992
1013 3 0.416667 0.416667 0.538454
1014 4 0.416667 0.416667 0.538454
1015 5 0.333333 0.416667 0.538454
1016 6 0.333333 0.416667 0.538454
1017 5 0.416667 0.333333 0.538454
1018 6 0.416667 0.333333 0.538454
1021 1 0.333333 0.333333 0.615362
1022 2 0.333333 0.333333 0.615362
1023 3 0.416667 0.416667 0.692269
1024 4 0.416667 0.416667 0.692269
1025 5 0.333333 0.416667 0.692269
1026 6 0.333333 0.416667 0.692269
1027 5 0.416667 0.333333 0.692269
1028 6 0.416667 0.333333 0.692269
1029 5 0.416667 0.416667 0.615362
1030 6 0.416667 0.416667 0.615362
1031 1 0.333333 0.333333 0.769177
1032 2 0.333333 0.333333 0.769177
1033 3 0.416667 0.416667 0.846085
1034 4 0.416667 0.416667 0.846085
1035 5 0.333333 0.416667 0.846085
1036 6 0.333333 0.416667 0.846085