ITEM: TIMESTEP
0
ITEM: NUMBER OF ATOMS
18000
ITEM: BOX BOUNDS xy xz yz pp pp pp
0.0000000000000000e+00 4.0472333897578004e+01 2.3935750558600000e-01
0.0000000000000000e+00 4.0232976391992004e+01 1.3297639199200001e-01
0.0000000000000000e+00 7.2180000000000007e+01 1.3297639199200001e-01
ITEM: ATOMS id type xs ys zs
1 1 0 0 0
2 2 0 0 0
3 3 0.05 0.05 0.0277778
4 4 0.05 0.05 0.0277778
5 5 2.1684e-19 0.05 0.0277778
6 6 2.1684e-19 0.05 0.0277778
7 5 0.05 -1.35525e-20 0.0277778
8 6 0.05 -1.35525e-20 0.0277778
9 5 0.05 0.05 0
10 6 0.05 0.05 0
11 1 0 -2.71051e-20 0.0555556
12 2 0 -2.71051e-20 0.0555556
13 3 0.05 0.05 0.0833333
14 4 0.05 0.05 0.0833333
15 5 5.42101e-20 0.05 0.0833333
16 6 5.42101e-20 0.05 0.0833333
17 5 0.05 0 0.0833333
18 6 0.05 0 0.0833333
19 5 0.05 0.05 0.0555556
20 6 0.05 0.05 0.0555556
21 1 0 -5.42101e-20 0.111111
22 2 0 -5.42101e-20 0.111111
23 3 0.05 0.05 0.138889
24 4 0.05 0.05 0.138889
25 5 1.6263e-19 0.05 0.138889
26 6 1.6263e-19 0.05 0.138889
27 5 0.05 0 0.138889
28 6 0.05 0 0.138889
29 5 0.05 0.05 0.111111
30 6 0.05 0.05 0.111111
31 1 0 0 0.166667
32 2 0 0 0.166667
33 3 0.05 0.05 0.194444
34 4 0.05 0.05 0.194444
35 5 0 0.05 0.194444
36 6 0 0.05 0.194444
37 5 0.05 0 0.194444
38 6 0.05 0 0.194444
39 5 0.05 0.05 0.166667
40 6 0.05 0.05 0.166667
41 1 0 -1.0842e-19 0.222222
42 2 0 -1.0842e-19 0.222222
43 3 0.05 0.05 0.25
44 4 0.05 0.05 0.25
45 5 1.0842e-19 0.05 0.25
46 6 1.0842e-19 0.05 0.25
47 5 0.05 0 0.25
48 6 0.05 0 0.25
49 5 0.05 0.05 0.222222
50 6 0.05 0.05 0.222222
51 1 -1.0842e-19 0 0.277778
52 2 -1.0842e-19 0 0.277778
53 3 0.05 0.05 0.305556
54 4 0.05 0.05 0.305556
55 5 -2.1684e-19 0.05 0.305556
56 6 -2.1684e-19 0.05 0.305556
57 5 0.05 0 0.305556
58 6 0.05 0 0.305556
59 5 0.05 0.05 0.277778
60 6 0.05 0.05 0.277778
61 1 0 0 0.333333
62 2 0 0 0.333333
63 3 0.05 0.05 0.361111
64 4 0.05 0.05 0.361111
65 5 0 0.05 0.361111
66 6 0 0.05 0.361111
67 5 0.05 0 0.361111
68 6 0.05 0 0.361111
69 5 0.05 0.05 0.333333
70 6 0.05 0.05 0.333333
71 1 0 0 0.388889
72 2 0 0 0.388889
73 3 0.05 0.05 0.416667
74 4 0.05 0.05 0.416667
75 5 0 0.05 0.416667
76 6 0 0.05 0.416667
77 5 0.05 0 0.416667
78 6 0.05 0 0.416667
79 5 0.05 0.05 0.388889
80 6 0.05 0.05 0.388889
81 1 0 -2.1684e-19 0.444444
82 2 0 -2.1684e-19 0.444444
83 3 0.05 0.05 0.472222
84 4 0.05 0.05 0.472222
85 5 2.1684e-19 0.05 0.472222
86 6 2.1684e-19 0.05 0.472222
87 5 0.05 1.30104e-18 0.472222
88 6 0.05 1.30104e-18 0.472222
89 5 0.05 0.05 0.444444
90 6 0.05 0.05 0.444444
181 1 0 0.1 0
182 2 0 0.1 0
183 3 0.05 0.15 0.0277778
184 4 0.05 0.15 0.0277778
185 5 2.71051e-19 0.15 0.0277778
186 6 2.71051e-19 0.15 0.0277778
187 5 0.05 0.1 0.0277778
188 6 0.05 0.1 0.0277778
189 5 0.05 0.15 0
190 6 0.05 0.15 0
191 1 4.33681e-19 0.1 0.0555556
192 2 4.33681e-19 0.1 0.0555556
193 3 0.05 0.15 0.0833333
194 4 0.05 0.15 0.0833333
195 5 8.67362e-19 0.15 0.0833333
196 6 8.67362e-19 0.15 0.0833333
197 5 0.05 0.1 0.0833333
198 6 0.05 0.1 0.0833333
199 5 0.05 0.15 0.0555556
200 6 0.05 0.15 0.0555556
201 1 -1.0842e-19 0.1 0.111111
202 2 -1.0842e-19 0.1 0.111111
203 3 0.05 0.15 0.138889
204 4 0.05 0.15 0.138889
205 5 0 0.15 0.138889
206 6 0 0.15 0.138889
207 5 0.05 0.1 0.138889
208 6 0.05 0.1 0.138889
209 5 0.05 0.15 0.111111
210 6 0.05 0.15 0.111111
211 1 1.0842e-19 0.1 0.166667
212 2 1.0842e-19 0.1 0.166667
213 3 0.05 0.15 0.194444
214 4 0.05 0.15 0.194444
215 5 5.42101e-19 0.15 0.194444
216 6 5.42101e-19 0.15 0.194444
217 5 0.05 0.1 0.194444
218 6 0.05 0.1 0.194444
219 5 0.05 0.15 0.166667
220 6 0.05 0.15 0.166667
221 1 1.0842e-19 0.1 0.222222
222 2 1.0842e-19 0.1 0.222222
223 3 0.05 0.15 0.25
224 4 0.05 0.15 0.25
225 5 7.58942e-19 0.15 0.25
226 6 7.58942e-19 0.15 0.25
227 5 0.05 0.1 0.25
228 6 0.05 0.1 0.25
229 5 0.05 0.15 0.222222
230 6 0.05 0.15 0.222222
231 1 3.25261e-19 0.1 0.277778
232 2 3.25261e-19 0.1 0.277778
233 3 0.05 0.15 0.305556
234 4 0.05 0.15 0.305556
235 5 -2.1684e-19 0.15 0.305556
236 6 -2.1684e-19 0.15 0.305556
237 5 0.05 0.1 0.305556
238 6 0.05 0.1 0.305556
239 5 0.05 0.15 0.277778
240 6 0.05 0.15 0.277778
241 1 4.33681e-19 0.1 0.333333
242 2 4.33681e-19 0.1 0.333333
243 3 0.05 0.15 0.361111
244 4 0.05 0.15 0.361111
245 5 6.50521e-19 0.15 0.361111
246 6 6.50521e-19 0.15 0.361111
247 5 0.05 0.1 0.361111
248 6 0.05 0.1 0.361111
249 5 0.05 0.15 0.333333
250 6 0.05 0.15 0.333333
251 1 0 0.1 0.388889
252 2 0 0.1 0.388889
253 3 0.05 0.15 0.416667
254 4 0.05 0.15 0.416667
255 5 0 0.15 0.416667
256 6 0 0.15 0.416667
257 5 0.05 0.1 0.416667
258 6 0.05 0.1 0.416667
259 5 0.05 0.15 0.388889
260 6 0.05 0.15 0.388889
261 1 2.1684e-19 0.1 0.444444
262 2 2.1684e-19 0.1 0.444444
263 3 0.05 0.15 0.472222
264 4 0.05 0.15 0.472222
265 5 0 0.15 0.472222
266 6 0 0.15 0.472222
267 5 0.05 0.1 0.472222
268 6 0.05 0.1 0.472222
269 5 0.05 0.15 0.444444
270 6 0.05 0.15 0.444444
361 1 0 0.2 0
362 2 0 0.2 0
363 3 0.05 0.25 0.0277778
364 4 0.05 0.25 0.0277778
365 5 5.42101e-20 0.25 0.0277778
366 6 5.42101e-20 0.25 0.0277778
367 5 0.05 0.2 0.0277778
368 6 0.05 0.2 0.0277778
369 5 0.05 0.25 0
370 6 0.05 0.25 0
371 1 5.42101e-19 0.2 0.0555556
372 2 5.42101e-19 0.2 0.0555556
373 3 0.05 0.25 0.0833333
374 4 0.05 0.25 0.0833333
375 5 3.25261e-19 0.25 0.0833333
376 6 3.25261e-19 0.25 0.0833333
377 5 0.05 0.2 0.0833333
378 6 0.05 0.2 0.0833333
379 5 0.05 0.25 0.0555556
380 6 0.05 0.25 0.0555556
381 1 8.67362e-19 0.2 0.111111
382 2 8.67362e-19 0.2 0.111111
383 3 0.05 0.25 0.138889
384 4 0.05 0.25 0.138889
385 5 5.42101e-19 0.25 0.138889
386 6 5.42101e-19 0.25 0.138889
387 5 0.05 0.2 0.138889
388 6 0.05 0.2 0.138889
389 5 0.05 0.25 0.111111
390 6 0.05 0.25 0.111111
391 1 6.50521e-19 0.2 0.166667
392 2 6.50521e-19 0.2 0.166667
393 3 0.05 0.25 0.194444
394 4 0.05 0.25 0.194444
395 5 1.0842e-19 0.25 0.194444
396 6 1.0842e-19 0.25 0.194444
397 5 0.05 0.2 0.194444
398 6 0.05 0.2 0.194444
399 5 0.05 0.25 0.166667
400 6 0.05 0.25 0.166667
401 1 -2.1684e-19 0.2 0.222222
402 2 -2.1684e-19 0.2 0.222222
403 3 0.05 0.25 0.25
404 4 0.05 0.25 0.25
405 5 -3.25261e-19 0.25 0.25
406 6 -3.25261e-19 0.25 0.25
407 5 0.05 0.2 0.25
408 6 0.05 0.2 0.25
409 5 0.05 0.25 0.222222
410 6 0.05 0.25 0.222222
411 1 -2.1684e-19 0.2 0.277778
412 2 -2.1684e-19 0.2 0.277778
413 3 0.05 0.25 0.305556
414 4 0.05 0.25 0.305556
415 5 2.1684e-19 0.25 0.305556
416 6 2.1684e-19 0.25 0.305556
417 5 0.05 0.2 0.305556
418 6 0.05 0.2 0.305556
419 5 0.05 0.25 0.277778
420 6 0.05 0.25 0.277778
421 1 2.1684e-19 0.2 0.333333
422 2 2.1684e-19 0.2 0.333333
423 3 0.05 0.25 0.361111
424 4 0.05 0.25 0.361111
425 5 0 0.25 0.361111
426 6 0 0.25 0.361111
427 5 0.05 0.2 0.361111
428 6 0.05 0.2 0.361111
429 5 0.05 0.25 0.333333
430 6 0.05 0.25 0.333333
431 1 0 0.2 0.388889
432 2 0 0.2 0.388889
433 3 0.05 0.25 0.416667
434 4 0.05 0.25 0.416667
435 5 6.50521e-19 0.25 0.416667
436 6 6.50521e-19 0.25 0.416667
437 5 0.05 0.2 0.416667
438 6 0.05 0.2 0.416667
439 5 0.05 0.25 0.388889
440 6 0.05 0.25 0.388889
441 1 2.1684e-19 0.2 0.444444
442 2 2.1684e-19 0.2 0.444444
443 3 0.05 0.25 0.472222
444 4 0.05 0.25 0.472222
445 5 0 0.25 0.472222
446 6 0 0.25 0.472222
447 5 0.05 0.2 0.472222
448 6 0.05 0.2 0.472222
449 5 0.05 0.25 0.444444
450 6 0.05 0.25 0.444444
541 1 4.33681e-19 0.3 0
542 2 4.33681e-19 0.3 0
543 3 0.05 0.35 0.0277778
544 4 0.05 0.35 0.0277778
545 5 -1.6263e-19 0.35 0.0277778
546 6 -1.6263e-19 0.35 0.0277778
547 5 0.05 0.3 0.0277778
548 6 0.05 0.3 0.0277778
549 5 0.05 0.35 0
550 6 0.05 0.35 0
551 1 5.42101e-19 0.3 0.0555556
552 2 5.42101e-19 0.3 0.0555556
553 3 0.05 0.35 0.0833333
554 4 0.05 0.35 0.0833333
555 5 7.58942e-19 0.35 0.0833333
556 6 7.58942e-19 0.35 0.0833333
557 5 0.05 0.3 0.0833333
558 6 0.05 0.3 0.0833333
559 5 0.05 0.35 0.0555556
560 6 0.05 0.35 0.0555556
561 1 1.51788e-18 0.3 0.111111
562 2 1.51788e-18 0.3 0.111111
563 3 0.05 0.35 0.138889
564 4 0.05 0.35 0.138889
565 5 3.25261e-19 0.35 0.138889
566 6 3.25261e-19 0.35 0.138889
567 5 0.05 0.3 0.138889
568 6 0.05 0.3 0.138889
569 5 0.05 0.35 0.111111
570 6 0.05 0.35 0.111111
571 1 1.73472e-18 0.3 0.166667
572 2 1.73472e-18 0.3 0.166667
573 3 0.05 0.35 0.194444
574 4 0.05 0.35 0.194444
575 5 1.0842e-19 0.35 0.194444
576 6 1.0842e-19 0.35 0.194444
577 5 0.05 0.3 0.194444
578 6 0.05 0.3 0.194444
579 5 0.05 0.35 0.166667
580 6 0.05 0.35 0.166667
581 1 2.1684e-19 0.3 0.222222
582 2 2.1684e-19 0.3 0.222222
583 3 0.05 0.35 0.25
584 4 0.05 0.35 0.25
585 5 -3.25261e-19 0.35 0.25
586 6 -3.25261e-19 0.35 0.25
587 5 0.05 0.3 0.25
588 6 0.05 0.3 0.25
589 5 0.05 0.35 0.222222
590 6 0.05 0.35 0.222222
591 1 0 0.3 0.277778
592 2 0 0.3 0.277778
593 3 0.05 0.35 0.305556
594 4 0.05 0.35 0.305556
595 5 -2.1684e-19 0.35 0.305556
596 6 -2.1684e-19 0.35 0.305556
597 5 0.05 0.3 0.305556
598 6 0.05 0.3 0.305556
599 5 0.05 0.35 0.277778
600 6 0.05 0.35 0.277778
601 1 2.1684e-19 0.3 0.333333
602 2 2.1684e-19 0.3 0.333333
603 3 0.05 0.35 0.361111
604 4 0.05 0.35 0.361111
605 5 -2.1684e-19 0.35 0.361111
606 6 -2.1684e-19 0.35 0.361111
607 5 0.05 0.3 0.361111
608 6 0.05 0.3 0.361111
609 5 0.05 0.35 0.333333
610 6 0.05 0.35 0.333333
611 1 1.0842e-18 0.3 0.388889
612 2 1.0842e-18 0.3 0.388889
613 3 0.05 0.35 0.416667
614 4 0.05 0.35 0.416667
615 5 4.33681e-19 0.35 0.416667
616 6 4.33681e-19 0.35 0.416667
617 5 0.05 0.3 0.416667
618 6 0.05 0.3 0.416667
619 5 0.05 0.35 0.388889
620 6 0.05 0.35 0.388889
621 1 6.50521e-19 0.3 0.444444
622 2 6.50521e-19 0.3 0.444444
623 3 0.05 0.35 0.472222
624 4 0.05 0.35 0.472222
625 5 0 0.35 0.472222
626 6 0 0.35 0.472222
627 5 0.05 0.3 0.472222
628 6 0.05 0.3 0.472222
629 5 0.05 0.35 0.444444
630 6 0.05 0.35 0.444444
721 1 0 0.4 0
722 2 0 0.4 0
723 3 0.05 0.45 0.0277778
724 4 0.05 0.45 0.0277778
725 5 -1.6263e-19 0.45 0.0277778
726 6 -1.6263e-19 0.45 0.0277778
727 5 0.05 0.4 0.0277778
728 6 0.05 0.4 0.0277778
729 5 0.05 0.45 0
730 6 0.05 0.45 0
731 1 1.0842e-19 0.4 0.0555556
732 2 1.0842e-19 0.4 0.0555556
733 3 0.05 0.45 0.0833333
734 4 0.05 0.45 0.0833333
735 5 -5.42101e-19 0.45 0.0833333
736 6 -5.42101e-19 0.45 0.0833333
737 5 0.05 0.4 0.0833333
738 6 0.05 0.4 0.0833333
739 5 0.05 0.45 0.0555556
740 6 0.05 0.45 0.0555556
741 1 1.0842e-18 0.4 0.111111
742 2 1.0842e-18 0.4 0.111111
743 3 0.05 0.45 0.138889
744 4 0.05 0.45 0.138889
745 5 -5.42101e-19 0.45 0.138889
746 6 -5.42101e-19 0.45 0.138889
747 5 0.05 0.4 0.138889
748 6 0.05 0.4 0.138889
749 5 0.05 0.45 0.111111
750 6 0.05 0.45 0.111111
751 1 1.51788e-18 0.4 0.166667
752 2 1.51788e-18 0.4 0.166667
753 3 0.05 0.45 0.194444
754 4 0.05 0.45 0.194444
755 5 -3.25261e-19 0.45 0.194444
756 6 -3.25261e-19 0.45 0.194444
757 5 0.05 0.4 0.194444
758 6 0.05 0.4 0.194444
759 5 0.05 0.45 0.166667
760 6 0.05 0.45 0.166667
761 1 1.73472e-18 0.4 0.222222
762 2 1.73472e-18 0.4 0.222222
763 3 0.05 0.45 0.25
764 4 0.05 0.45 0.25
765 5 1.0842e-19 0.45 0.25
766 6 1.0842e-19 0.45 0.25
767 5 0.05 0.4 0.25
768 6 0.05 0.4 0.25
769 5 0.05 0.45 0.222222
770 6 0.05 0.45 0.222222
771 1 1.51788e-18 0.4 0.277778
772 2 1.51788e-18 0.4 0.277778
773 3 0.05 0.45 0.305556
774 4 0.05 0.45 0.305556
775 5 -2.1684e-19 0.45 0.305556
776 6 -2.1684e-19 0.45 0.305556
777 5 0.05 0.4 0.305556
778 6 0.05 0.4 0.305556
779 5 0.05 0.45 0.277778
780 6 0.05 0.45 0.277778
781 1 1.30104e-18 0.4 0.333333
782 2 1.30104e-18 0.4 0.333333
783 3 0.05 0.45 0.361111
784 4 0.05 0.45 0.361111
785 5 2.1684e-19 0.45 0.361111
786 6 2.1684e-19 0.45 0.361111
787 5 0.05 0.4 0.361111
788 6 0.05 0.4 0.361111
789 5 0.05 0.45 0.333333
790 6 0.05 0.45 0.333333
791 1 1.0842e-18 0.4 0.388889
792 2 1.0842e-18 0.4 0.388889
793 3 0.05 0.45 0.416667
794 4 0.05 0.45 0.416667
795 5 0 0.45 0.416667
796 6 0 0.45 0.416667
797 5 0.05 0.4 0.416667
798 6 0.05 0.4 0.416667
799 5 0.05 0.45 0.388889
800 6 0.05 0.45 0.388889
801 1 -4.33681e-19 0.4 0.444444
802 2 -4.33681e-19 0.4 0.444444
803 3 0.05 0.45 0.472222
804 4 0.05 0.45 0.472222
805 5 0 0.45 0.472222
806 6 0 0.45 0.472222
807 5 0.05 0.4 0.472222
808 6 0.05 0.4 0.472222
809 5 0.05 0.45 0.444444
810 6 0.05 0.45 0.444444
1801 1 0.1 0 0
1802 2 0.1 0 0
1803 3 0.15 0.05 0.0277778
1804 4 0.15 0.05 0.0277778
1805 5 0.1 0.05 0.0277778
1806 6 0.1 0.05 0.0277778
1807 5 0.15 -1.35525e-20 0.0277778
1808 6 0.15 -1.35525e-20 0.0277778
1809 5 0.15 0.05 0
1810 6 0.15 0.05 0
1811 1 0.1 -2.71051e-20 0.0555556
1812 2 0.1 -2.71051e-20 0.0555556
1813 3 0.15 0.05 0.0833333
1814 4 0.15 0.05 0.0833333
1815 5 0.1 0.05 0.0833333
1816 6 0.1 0.05 0.0833333
1817 5 0.15 0 0.0833333
1818 6 0.15 0 0.0833333
1819 5 0.15 0.05 0.0555556
1820 6 0.15 0.05 0.0555556
1821 1 0.1 -5.42101e-20 0.111111
1822 2 0.1 -5.42101e-20 0.111111
1823 3 0.15 0.05 0.138889
1824 4 0.15 0.05 0.138889
1825 5 0.1 0.05 0.138889
1826 6 0.1 0.05 0.138889
1827 5 0.15 0 0.138889
1828 6 0.15 0 0.138889
1829 5 0.15 0.05 0.111111
1830 6 0.15 0.05 0.111111
1831 1 0.1 0 0.166667
1832 2 0.1 0 0.166667
1833 3 0.15 0.05 0.194444
1834 4 0.15 0.05 0.194444
1835 5 0.1 0.05 0.194444
1836 6 0.1 0.05 0.194444
1837 5 0.15 0 0.194444
1838 6 0.15 0 0.194444
1839 5 0.15 0.05 0.166667
1840 6 0.15 0.05 0.166667
1841 1 0.1 -1.0842e-19 0.222222
1842 2 0.1 -1.0842e-19 0.222222
1843 3 0.15 0.05 0.25
1844 4 0.15 0.05 0.25
1845 5 0.1 0.05 0.25
1846 6 0.1 0.05 0.25
1847 5 0.15 0 0.25
1848 6 0.15 0 0.25
1849 5 0.15 0.05 0.222222
1850 6 0.15 0.05 0.222222
1851 1 0.1 0 0.277778
1852 2 0.1 0 0.277778
1853 3 0.15 0.05 0.305556
1854 4 0.15 0.05 0.305556
1855 5 0.1 0.05 0.305556
1856 6 0.1 0.05 0.305556
1857 5 0.15 0 0.305556
1858 6 0.15 0 0.305556
1859 5 0.15 0.05 0.277778
1860 6 0.15 0.05 0.277778
1861 1 0.1 0 0.333333
1862 2 0.1 0 0.333333
1863 3 0.15 0.05 0.361111
1864 4 0.15 0.05 0.361111
1865 5 0.1 0.05 0.361111
1866 6 0.1 0.05 0.361111
1867 5 0.15 0 0.361111
1868 6 0.15 0 0.361111
1869 5 0.15 0.05 0.333333
1870 6 0.15 0.05 0.333333
1871 1 0.1 0 0.388889
1872 2 0.1 0 0.388889
1873 3 0.15 0.05 0.416667
1874 4 0.15 0.05 0.416667
1875 5 0.1 0.05 0.416667
1876 6 0.1 0.05 0.416667
1877 5 0.15 0 0.416667
1878 6 0.15 0 0.416667
1879 5 0.15 0.05 0.388889
1880 6 0.15 0.05 0.388889
1881 1 0.1 -2.1684e-19 0.444444
1882 2 0.1 -2.1684e-19 0.444444
1883 3 0.15 0.05 0.472222
1884 4 0.15 0.05 0.472222
1885 5 0.1 0.05 0.472222
1886 6 0.1 0.05 0.472222
1887 5 0.15 1.30104e-18 0.472222
1888 6 0.15 1.30104e-18 0.472222
1889 5 0.15 0.05 0.444444
1890 6 0.15 0.05 0.444444
1981 1 0.1 0.1 0
1982 2 0.1 0.1 0
1983 3 0.15 0.15 0.0277778
1984 4 0.15 0.15 0.0277778
1985 5 0.1 0.15 0.0277778
1986 6 0.1 0.15 0.0277778
1987 5 0.15 0.1 0.0277778
1988 6 0.15 0.1 0.0277778
1989 5 0.15 0.15 0
1990 6 0.15 0.15 0
1991 1 0.1 0.1 0.0555556
1992 2 0.1 0.1 0.0555556
1993 3 0.15 0.15 0.0833333
1994 4 0.15 0.15 0.0833333
1995 5 0.1 0.15 0.0833333
1996 6 0.1 0.15 0.0833333
1997 5 0.15 0.1 0.0833333
1998 6 0.15 0.1 0.0833333
1999 5 0.15 0.15 0.0555556
2000 6 0.15 0.15 0.0555556
2001 1 0.1 0.1 0.111111
2002 2 0.1 0.1 0.111111
2003 3 0.15 0.15 0.138889
2004 4 0.15 0.15 0.138889
2005 5 0.1 0.15 0.138889
2006 6 0.1 0.15 0.138889
2007 5 0.15 0.1 0.138889
2008 6 0.15 0.1 0.138889
2009 5 0.15 0.15 0.111111
2010 6 0.15 0.15 0.111111
2011 1 0.1 0.1 0.166667
2012 2 0.1 0.1 0.166667
2013 3 0.15 0.15 0.194444
2014 4 0.15 0.15 0.194444
2015 5 0.1 0.15 0.194444
2016 6 0.1 0.15 0.194444
2017 5 0.15 0.1 0.194444
2018 6 0.15 0.1 0.194444
2019 5 0.15 0.15 0.166667
2020 6 0.15 0.15 0.166667
2021 1 0.1 0.1 0.222222
2022 2 0.1 0.1 0.222222
2023 3 0.15 0.15 0.25
2024 4 0.15 0.15 0.25
2025 5 0.1 0.15 0.25
2026 6 0.1 0.15 0.25
2027 5 0.15 0.1 0.25
2028 6 0.15 0.1 0.25
2029 5 0.15 0.15 0.222222
2030 6 0.15 0.15 0.222222
2031 1 0.1 0.1 0.277778
2032 2 0.1 0.1 0.277778
2033 3 0.15 0.15 0.305556
2034 4 0.15 0.15 0.305556
2035 5 0.1 0.15 0.305556
2036 6 0.1 0.15 0.305556
2037 5 0.15 0.1 0.305556
2038 6 0.15 0.1 0.305556
2039 5 0.15 0.15 0.277778
2040 6 0.15 0.15 0.277778
2041 1 0.1 0.1 0.333333
2042 2 0.1 0.1 0.333333
2043 3 0.15 0.15 0.361111
2044 4 0.15 0.15 0.361111
2045 5 0.1 0.15 0.361111
2046 6 0.1 0.15 0.361111
2047 5 0.15 0.1 0.361111
2048 6 0.15 0.1 0.361111
2049 5 0.15 0.15 0.333333
2050 6 0.15 0.15 0.333333
2051 1 0.1 0.1 0.388889
2052 2 0.1 0.1 0.388889
2053 3 0.15 0.15 0.416667
2054 4 0.15 0.15 0.416667
2055 5 0.1 0.15 0.416667
2056 6 0.1 0.15 0.416667
2057 5 0.15 0.1 0.416667
2058 6 0.15 0.1 0.416667
2059 5 0.15 0.15 0.388889
2060 6 0.15 0.15 0.388889
2061 1 0.1 0.1 0.444444
2062 2 0.1 0.1 0.444444
2063 3 0.15 0.15 0.472222
2064 4 0.15 0.15 0.472222
2065 5 0.1 0.15 0.472222
2066 6 0.1 0.15 0.472222
2067 5 0.15 0.1 0.472222
2068 6 0.15 0.1 0.472222
2069 5 0.15 0.15 0.444444
2070 6 0.15 0.15 0.444444
2161 1 0.1 0.2 0
2162 2 0.1 0.2 0
2163 3 0.15 0.25 0.0277778
2164 4 0.15 0.25 0.0277778
2165 5 0.1 0.25 0.0277778
2166 6 0.1 0.25 0.0277778
2167 5 0.15 0.2 0.0277778
2168 6 0.15 0.2 0.0277778
2169 5 0.15 0.25 0
2170 6 0.15 0.25 0
2171 1 0.1 0.2 0.0555556
2172 2 0.1 0.2 0.0555556
2173 3 0.15 0.25 0.0833333
2174 4 0.15 0.25 0.0833333
2175 5 0.1 0.25 0.0833333
2176 6 0.1 0.25 0.0833333
2177 5 0.15 0.2 0.0833333
2178 6 0.15 0.2 0.0833333
2179 5 0.15 0.25 0.0555556
2180 6 0.15 0.25 0.0555556
2181 1 0.1 0.2 0.111111
2182 2 0.1 0.2 0.111111
2183 3 0.15 0.25 0.138889
2184 4 0.15 0.25 0.138889
2185 5 0.1 0.25 0.138889
2186 6 0.1 0.25 0.138889
2187 5 0.15 0.2 0.138889
2188 6 0.15 0.2 0.138889
2189 5 0.15 0.25 0.111111
2190 6 0.15 0.25 0.111111
2191 1 0.1 0.2 0.166667
2192 2 0.1 0.2 0.166667
2193 3 0.15 0.25 0.194444
2194 4 0.15 0.25 0.194444
2195 5 0.1 0.25 0.194444
2196 6 0.1 0.25 0.194444
2197 5 0.15 0.2 0.194444
2198 6 0.15 0.2 0.194444
2199 5 0.15 0.25 0.166667
2200 6 0.15 0.25 0.166667
2201 1 0.1 0.2 0.222222
2202 2 0.1 0.2 0.222222
2203 3 0.15 0.25 0.25
2204 4 0.15 0.25 0.25
2205 5 0.1 0.25 0.25
2206 6 0.1 0.25 0.25
2207 5 0.15 0.2 0.25
2208 6 0.15 0.2 0.25
2209 5 0.15 0.25 0.222222
2210 6 0.15 0.25 0.222222
2211 1 0.1 0.2 0.277778
2212 2 0.1 0.2 0.277778
2213 3 0.15 0.25 0.305556
2214 4 0.15 0.25 0.305556
2215 5 0.1 0.25 0.305556
2216 6 0.1 0.25 0.305556
2217 5 0.15 0.2 0.305556
2218 6 0.15 0.2 0.305556
2219 5 0.15 0.25 0.277778
2220 6 0.15 0.25 0.277778
2221 1 0.1 0.2 0.333333
2222 2 0.1 0.2 0.333333
2223 3 0.15 0.25 0.361111
2224 4 0.15 0.25 0.361111
2225 5 0.1 0.25 0.361111
2226 6 0.1 0.25 0.361111
2227 5 0.15 0.2 0.361111
2228 6 0.15 0.2 0.361111
2229 5 0.15 0.25 0.333333
2230 6 0.15 0.25 0.333333
2231 1 0.1 0.2 0.388889
2232 2 0.1 0.2 0.388889
2233 3 0.15 0.25 0.416667
2234 4 0.15 0.25 0.416667
2235 5 0.1 0.25 0.416667
2236 6 0.1 0.25 0.416667
2237 5 0.15 0.2 0.416667
2238 6 0.15 0.2 0.416667
2239 5 0.15 0.25 0.388889
2240 6 0.15 0.25 0.388889
2241 1 0.1 0.2 0.444444
2242 2 0.1 0.2 0.444444
2243 3 0.15 0.25 0.472222
2244 4 0.15 0.25 0.472222
2245 5 0.1 0.25 0.472222
2246 6 0.1 0.25 0.472222
2247 5 0.15 0.2 0.472222
2248 6 0.15 0.2 0.472222
2249 5 0.15 0.25 0.444444
2250 6 0.15 0.25 0.444444
2341 1 0.1 0.3 0
2342 2 0.1 0.3 0
2343 3 0.15 0.35 0.0277778
2344 4 0.15 0.35 0.0277778
2345 5 0.1 0.35 0.0277778
2346 6 0.1 0.35 0.0277778
2347 5 0.15 0.3 0.0277778
2348 6 0.15 0.3 0.0277778
2349 5 0.15 0.35 0
2350 6 0.15 0.35 0
2351 1 0.1 0.3 0.0555556
2352 2 0.1 0.3 0.0555556
2353 3 0.15 0.35 0.0833333
2354 4 0.15 0.35 0.0833333
2355 5 0.1 0.35 0.0833333
2356 6 0.1 0.35 0.0833333
2357 5 0.15 0.3 0.0833333
2358 6 0.15 0.3 0.0833333
2359 5 0.15 0.35 0.0555556
2360 6 0.15 0.35 0.0555556
2361 1 0.1 0.3 0.111111
2362 2 0.1 0.3 0.111111
2363 3 0.15 0.35 0.138889
2364 4 0.15 0.35 0.138889
2365 5 0.1 0.35 0.138889
2366 6 0.1 0.35 0.138889
2367 5 0.15 0.3 0.138889
2368 6 0.15 0.3 0.138889
2369 5 0.15 0.35 0.111111
2370 6 0.15 0.35 0.111111
2371 1 0.1 0.3 0.166667
2372 2 0.1 0.3 0.166667
2373 3 0.15 0.35 0.194444
2374 4 0.15 0.35 0.194444
2375 5 0.1 0.35 0.194444
2376 6 0.1 0.35 0.194444
2377 5 0.15 0.3 0.194444
2378 6 0.15 0.3 0.194444
2379 5 0.15 0.35 0.166667
2380 6 0.15 0.35 0.166667
2381 1 0.1 0.3 0.222222
2382 2 0.1 0.3 0.222222
2383 3 0.15 0.35 0.25
2384 4 0.15 0.35 0.25
2385 5 0.1 0.35 0.25
2386 6 0.1 0.35 0.25
2387 5 0.15 0.3 0.25
2388 6 0.15 0.3 0.25
2389 5 0.15 0.35 0.222222
2390 6 0.15 0.35 0.222222
2391 1 0.1 0.3 0.277778
2392 2 0.1 0.3 0.277778
2393 3 0.15 0.35 0.305556
2394 4 0.15 0.35 0.305556
2395 5 0.1 0.35 0.305556
2396 6 0.1 0.35 0.305556
2397 5 0.15 0.3 0.305556
2398 6 0.15 0.3 0.305556
2399 5 0.15 0.35 0.277778
2400 6 0.15 0.35 0.277778
2401 1 0.1 0.3 0.333333
2402 2 0.1 0.3 0.333333
2403 3 0.15 0.35 0.361111
2404 4 0.15 0.35 0.361111
2405 5 0.1 0.35 0.361111
2406 6 0.1 0.35 0.361111
2407 5 0.15 0.3 0.361111
2408 6 0.15 0.3 0.361111
2409 5 0.15 0.35 0.333333
2410 6 0.15 0.35 0.333333
2411 1 0.1 0.3 0.388889
2412 2 0.1 0.3 0.388889
2413 3 0.15 0.35 0.416667
2414 4 0.15 0.35 0.416667
2415 5 0.1 0.35 0.416667
2416 6 0.1 0.35 0.416667
2417 5 0.15 0.3 0.416667
2418 6 0.15 0.3 0.416667
2419 5 0.15 0.35 0.388889
2420 6 0.15 0.35 0.388889
2421 1 0.1 0.3 0.444444
2422 2 0.1 0.3 0.444444
2423 3 0.15 0.35 0.472222
2424 4 0.15 0.35 0.472222
2425 5 0.1 0.35 0.472222
2426 6 0.1 0.35 0.472222
2427 5 0.15 0.3 0.472222
2428 6 0.15 0.3 0.472222
2429 5 0.15 0.35 0.444444
2430 6 0.15 0.35 0.444444
2521 1 0.1 0.4 0
2522 2 0.1 0.4 0
2523 3 0.15 0.45 0.0277778
2524 4 0.15 0.45 0.0277778
2525 5 0.1 0.45 0.0277778
2526 6 0.1 0.45 0.0277778
2527 5 0.15 0.4 0.0277778
2528 6 0.15 0.4 0.0277778
2529 5 0.15 0.45 0
2530 6 0.15 0.45 0
2531 1 0.1 0.4 0.0555556
2532 2 0.1 0.4 0.0555556
2533 3 0.15 0.45 0.0833333
2534 4 0.15 0.45 0.0833333
2535 5 0.1 0.45 0.0833333
2536 6 0.1 0.45 0.0833333
2537 5 0.15 0.4 0.0833333
2538 6 0.15 0.4 0.0833333
2539 5 0.15 0.45 0.0555556
2540 6 0.15 0.45 0.0555556
2541 1 0.1 0.4 0.111111
2542 2 0.1 0.4 0.111111
2543 3 0.15 0.45 0.138889
2544 4 0.15 0.45 0.138889
2545 5 0.1 0.45 0.138889
2546 6 0.1 0.45 0.138889
2547 5 0.15 0.4 0.138889
2548 6 0.15 0.4 0.138889
2549 5 0.15 0.45 0.111111
2550 6 0.15 0.45 0.111111
2551 1 0.1 0.4 0.166667
2552 2 0.1 0.4 0.166667
2553 3 0.15 0.45 0.194444
2554 4 0.15 0.45 0.194444
2555 5 0.1 0.45 0.194444
2556 6 0.1 0.45 0.194444
2557 5 0.15 0.4 0.194444
2558 6 0.15 0.4 0.194444
2559 5 0.15 0.45 0.166667
2560 6 0.15 0.45 0.166667
2561 1 0.1 0.4 0.222222
2562 2 0.1 0.4 0.222222
2563 3 0.15 0.45 0.25
2564 4 0.15 0.45 0.25
2565 5 0.1 0.45 0.25
2566 6 0.1 0.45 0.25
2567 5 0.15 0.4 0.25
2568 6 0.15 0.4 0.25
2569 5 0.15 0.45 0.222222
2570 6 0.15 0.45 0.222222
2571 1 0.1 0.4 0.277778
2572 2 0.1 0.4 0.277778
2573 3 0.15 0.45 0.305556
2574 4 0.15 0.45 0.305556
2575 5 0.1 0.45 0.305556
2576 6 0.1 0.45 0.305556
2577 5 0.15 0.4 0.305556
2578 6 0.15 0.4 0.305556
2579 5 0.15 0.45 0.277778
2580 6 0.15 0.45 0.277778
2581 1 0.1 0.4 0.333333
2582 2 0.1 0.4 0.333333
2583 3 0.15 0.45 0.361111
2584 4 0.15 0.45 0.361111
2585 5 0.1 0.45 0.361111
2586 6 0.1 0.45 0.361111
2587 5 0.15 0.4 0.361111
2588 6 0.15 0.4 0.361111
2589 5 0.15 0.45 0.333333
2590 6 0.15 0.45 0.333333
2591 1 0.1 0.4 0.388889
2592 2 0.1 0.4 0.388889
2593 3 0.15 0.45 0.416667
2594 4 0.15 0.45 0.416667
2595 5 0.1 0.45 0.416667
2596 6 0.1 0.45 0.416667
2597 5 0.15 0.4 0.416667
2598 6 0.15 0.4 0.416667
2599 5 0.15 0.45 0.388889
2600 6 0.15 0.45 0.388889
2601 1 0.1 0.4 0.444444
2602 2 0.1 0.4 0.444444
2603 3 0.15 0.45 0.472222
2604 4 0.15 0.45 0.472222
2605 5 0.1 0.45 0.472222
2606 6 0.1 0.45 0.472222
2607 5 0.15 0.4 0.472222
2608 6 0.15 0.4 0.472222
2609 5 0.15 0.45 0.444444
2610 6 0.15 0.45 0.444444
3601 1 0.2 0 0
3602 2 0.2 0 0
3603 3 0.25 0.05 0.0277778
3604 4 0.25 0.05 0.0277778
3605 5 0.2 0.05 0.0277778
3606 6 0.2 0.05 0.0277778
3607 5 0.25 -1.35525e-20 0.0277778
3608 6 0.25 -1.35525e-20 0.0277778
3609 5 0.25 0.05 0
3610 6 0.25 0.05 0
3611 1 0.2 -2.71051e-20 0.0555556
3612 2 0.2 -2.71051e-20 0.0555556
3613 3 0.25 0.05 0.0833333
3614 4 0.25 0.05 0.0833333
3615 5 0.2 0.05 0.0833333
3616 6 0.2 0.05 0.0833333
3617 5 0.25 0 0.0833333
3618 6 0.25 0 0.0833333
3619 5 0.25 0.05 0.0555556
3620 6 0.25 0.05 0.0555556
3621 1 0.2 -5.42101e-20 0.111111
3622 2 0.2 -5.42101e-20 0.111111
3623 3 0.25 0.05 0.138889
3624 4 0.25 0.05 0.138889
3625 5 0.2 0.05 0.138889
3626 6 0.2 0.05 0.138889
3627 5 0.25 0 0.138889
3628 6 0.25 0 0.138889
3629 5 0.25 0.05 0.111111
3630 6 0.25 0.05 0.111111
3631 1 0.2 0 0.166667
3632 2 0.2 0 0.166667
3633 3 0.25 0.05 0.194444
3634 4 0.25 0.05 0.194444
3635 5 0.2 0.05 0.194444
3636 6 0.2 0.05 0.194444
3637 5 0.25 0 0.194444
3638 6 0.25 0 0.194444
3639 5 0.25 0.05 0.166667
3640 6 0.25 0.05 0.166667
3641 1 0.2 -1.0842e-19 0.222222
3642 2 0.2 -1.0842e-19 0.222222
3643 3 0.25 0.05 0.25
3644 4 0.25 0.05 0.25
3645 5 0.2 0.05 0.25
3646 6 0.2 0.05 0.25
3647 5 0.25 0 0.25
3648 6 0.25 0 0.25
3649 5 0.25 0.05 0.222222
3650 6 0.25 0.05 0.222222
3651 1 0.2 0 0.277778
3652 2 0.2 0 0.277778
3653 3 0.25 0.05 0.305556
3654 4 0.25 0.05 0.305556
3655 5 0.2 0.05 0.305556
3656 6 0.2 0.05 0.305556
3657 5 0.25 0 0.305556
3658 6 0.25 0 0.305556
3659 5 0.25 0.05 0.277778
3660 6 0.25 0.05 0.277778
3661 1 0.2 0 0.333333
3662 2 0.2 0 0.333333
3663 3 0.25 0.05 0.361111
3664 4 0.25 0.05 0.361111
3665 5 0.2 0.05 0.361111
3666 6 0.2 0.05 0.361111
3667 5 0.25 0 0.361111
3668 6 0.25 0 0.361111
3669 5 0.25 0.05 0.333333
3670 6 0.25 0.05 0.333333
3671 1 0.2 0 0.388889
3672 2 0.2 0 0.388889
3673 3 0.25 0.05 0.416667
3674 4 0.25 0.05 0.416667
3675 5 0.2 0.05 0.416667
3676 6 0.2 0.05 0.416667
3677 5 0.25 0 0.416667
3678 6 0.25 0 0.416667
3679 5 0.25 0.05 0.388889
3680 6 0.25 0.05 0.388889
3681 1 0.2 -2.1684e-19 0.444444
3682 2 0.2 -2.1684e-19 0.444444
3683 3 0.25 0.05 0.472222
3684 4 0.25 0.05 0.472222
3685 5 0.2 0.05 0.472222
3686 6 0.2 0.05 0.472222
3687 5 0.25 1.30104e-18 0.472222
3688 6 0.25 1.30104e-18 0.472222
3689 5 0.25 0.05 0.444444
3690 6 0.25 0.05 0.444444
3781 1 0.2 0.1 0
3782 2 0.2 0.1 0
3783 3 0.25 0.15 0.0277778
3784 4 0.25 0.15 0.0277778
3785 5 0.2 0.15 0.0277778
3786 6 0.2 0.15 0.0277778
3787 5 0.25 0.1 0.0277778
3788 6 0.25 0.1 0.0277778
3789 5 0.25 0.15 0
3790 6 0.25 0.15 0
3791 1 0.2 0.1 0.0555556
3792 2 0.2 0.1 0.0555556
3793 3 0.25 0.15 0.0833333
3794 4 0.25 0.15 0.0833333
3795 5 0.2 0.15 0.0833333
3796 6 0.2 0.15 0.0833333
3797 5 0.25 0.1 0.0833333
3798 6 0.25 0.1 0.0833333
3799 5 0.25 0.15 0.0555556
3800 6 0.25 0.15 0.0555556
3801 1 0.2 0.1 0.111111
3802 2 0.2 0.1 0.111111
3803 3 0.25 0.15 0.138889
3804 4 0.25 0.15 0.138889
3805 5 0.2 0.15 0.138889
3806 6 0.2 0.15 0.138889
3807 5 0.25 0.1 0.138889
3808 6 0.25 0.1 0.138889
3809 5 0.25 0.15 0.111111
3810 6 0.25 0.15 0.111111
3811 1 0.2 0.1 0.166667
3812 2 0.2 0.1 0.166667
3813 3 0.25 0.15 0.194444
3814 4 0.25 0.15 0.194444
3815 5 0.2 0.15 0.194444
3816 6 0.2 0.15 0.194444
3817 5 0.25 0.1 0.194444
3818 6 0.25 0.1 0.194444
3819 5 0.25 0.15 0.166667
3820 6 0.25 0.15 0.166667
3821 1 0.2 0.1 0.222222
3822 2 0.2 0.1 0.222222
3823 3 0.25 0.15 0.25
3824 4 0.25 0.15 0.25
3825 5 0.2 0.15 0.25
3826 6 0.2 0.15 0.25
3827 5 0.25 0.1 0.25
3828 6 0.25 0.1 0.25
3829 5 0.25 0.15 0.222222
3830 6 0.25 0.15 0.222222
3831 1 0.2 0.1 0.277778
3832 2 0.2 0.1 0.277778
3833 3 0.25 0.15 0.305556
3834 4 0.25 0.15 0.305556
3835 5 0.2 0.15 0.305556
3836 6 0.2 0.15 0.305556
3837 5 0.25 0.1 0.305556
3838 6 0.25 0.1 0.305556
3839 5 0.25 0.15 0.277778
3840 6 0.25 0.15 0.277778
3841 1 0.2 0.1 0.333333
3842 2 0.2 0.1 0.333333
3843 3 0.25 0.15 0.361111
3844 4 0.25 0.15 0.361111
3845 5 0.2 0.15 0.361111
3846 6 0.2 0.15 0.361111
3847 5 0.25 0.1 0.361111
3848 6 0.25 0.1 0.361111
3849 5 0.25 0.15 0.333333
3850 6 0.25 0.15 0.333333
3851 1 0.2 0.1 0.388889
3852 2 0.2 0.1 0.388889
3853 3 0.25 0.15 0.416667
3854 4 0.25 0.15 0.416667
3855 5 0.2 0.15 0.416667
3856 6 0.2 0.15 0.416667
3857 5 0.25 0.1 0.416667
3858 6 0.25 0.1 0.416667
3859 5 0.25 0.15 0.388889
3860 6 0.25 0.15 0.388889
3861 1 0.2 0.1 0.444444
3862 2 0.2 0.1 0.444444
3863 3 0.25 0.15 0.472222
3864 4 0.25 0.15 0.472222
3865 5 0.2 0.15 0.472222
3866 6 0.2 0.15 0.472222
3867 5 0.25 0.1 0.472222
3868 6 0.25 0.1 0.472222
3869 5 0.25 0.15 0.444444
3870 6 0.25 0.15 0.444444
3961 1 0.2 0.2 0
3962 2 0.2 0.2 0
3963 3 0.25 0.25 0.0277778
3964 4 0.25 0.25 0.0277778
3965 5 0.2 0.25 0.0277778
3966 6 0.2 0.25 0.0277778
3967 5 0.25 0.2 0.0277778
3968 6 0.25 0.2 0.0277778
3969 5 0.25 0.25 0
3970 6 0.25 0.25 0
3971 1 0.2 0.2 0.0555556
3972 2 0.2 0.2 0.0555556
3973 3 0.25 0.25 0.0833333
3974 4 0.25 0.25 0.0833333
3975 5 0.2 0.25 0.0833333
3976 6 0.2 0.25 0.0833333
3977 5 0.25 0.2 0.0833333
3978 6 0.25 0.2 0.0833333
3979 5 0.25 0.25 0.0555556
3980 6 0.25 0.25 0.0555556
3981 1 0.2 0.2 0.111111
3982 2 0.2 0.2 0.111111
3983 3 0.25 0.25 0.138889
3984 4 0.25 0.25 0.138889
3985 5 0.2 0.25 0.138889
3986 6 0.2 0.25 0.138889
3987 5 0.25 0.2 0.138889
3988 6 0.25 0.2 0.138889
3989 5 0.25 0.25 0.111111
3990 6 0.25 0.25 0.111111
3991 1 0.2 0.2 0.166667
3992 2 0.2 0.2 0.166667
3993 3 0.25 0.25 0.194444
3994 4 0.25 0.25 0.194444
3995 5 0.2 0.25 0.194444
3996 6 0.2 0.25 0.194444
3997 5 0.25 0.2 0.194444
3998 6 0.25 0.2 0.194444
3999 5 0.25 0.25 0.166667
4000 6 0.25 0.25 0.166667
4001 1 0.2 0.2 0.222222
4002 2 0.2 0.2 0.222222
4003 3 0.25 0.25 0.25
4004 4 0.25 0.25 0.25
4005 5 0.2 0.25 0.25
4006 6 0.2 0.25 0.25
4007 5 0.25 0.2 0.25
4008 6 0.25 0.2 0.25
4009 5 0.25 0.25 0.222222
4010 6 0.25 0.25 0.222222
4011 1 0.2 0.2 0.277778
4012 2 0.2 0.2 0.277778
4013 3 0.25 0.25 0.305556
4014 4 0.25 0.25 0.305556
4015 5 0.2 0.25 0.305556
4016 6 0.2 0.25 0.305556
4017 5 0.25 0.2 0.305556
4018 6 0.25 0.2 0.305556
4019 5 0.25 0.25 0.277778
4020 6 0.25 0.25 0.277778
4021 1 0.2 0.2 0.333333
4022 2 0.2 0.2 0.333333
4023 3 0.25 0.25 0.361111
4024 4 0.25 0.25 0.361111
4025 5 0.2 0.25 0.361111
4026 6 0.2 0.25 0.361111
4027 5 0.25 0.2 0.361111
4028 6 0.25 0.2 0.361111
4029 5 0.25 0.25 0.333333
4030 6 0.25 0.25 0.333333
4031 1 0.2 0.2 0.388889
4032 2 0.2 0.2 0.388889
4033 3 0.25 0.25 0.416667
4034 4 0.25 0.25 0.416667
4035 5 0.2 0.25 0.416667
4036 6 0.2 0.25 0.416667
4037 5 0.25 0.2 0.416667
4038 6 0.25 0.2 0.416667
4039 5 0.25 0.25 0.388889
4040 6 0.25 0.25 0.388889
4041 1 0.2 0.2 0.444444
4042 2 0.2 0.2 0.444444
4043 3 0.25 0.25 0.472222
4044 4 0.25 0.25 0.472222
4045 5 0.2 0.25 0.472222
4046 6 0.2 0.25 0.472222
4047 5 0.25 0.2 0.472222
4048 6 0.25 0.2 0.472222
4049 5 0.25 0.25 0.444444
4050 6 0.25 0.25 0.444444
4141 1 0.2 0.3 0
4142 2 0.2 0.3 0
4143 3 0.25 0.35 0.0277778
4144 4 0.25 0.35 0.0277778
4145 5 0.2 0.35 0.0277778
4146 6 0.2 0.35 0.0277778