ITEM: TIMESTEP
0
ITEM: NUMBER OF ATOMS
18000
ITEM: BOX BOUNDS xy xz yz pp pp pp
0.0000000000000000e+00 4.0472333897578004e+01 2.3935750558600000e-01
0.0000000000000000e+00 4.0232976391992004e+01 1.3297639199200001e-01
0.0000000000000000e+00 7.2180000000000007e+01 1.3297639199200001e-01
ITEM: ATOMS id type c_dr[1] c_dr[2] c_dr[3] 
1 1 0 0 0 
2 2 0 0 0 
3 3 0 0 0 
4 4 0 0 0 
5 5 0 0 0 
6 6 0 0 0 
7 5 0 4.33681e-19 0 
8 6 0 4.33681e-19 0 
9 5 0 0 0 
10 6 0 0 0 
11 1 0 8.67362e-19 0 
12 2 0 8.67362e-19 0 
13 3 0 0 0 
14 4 0 0 0 
15 5 0 0 0 
16 6 0 0 0 
17 5 0 0 0 
18 6 0 0 0 
19 5 0 0 0 
20 6 0 0 0 
21 1 0 1.73472e-18 0 
22 2 0 1.73472e-18 0 
23 3 0 -4.44089e-16 0 
24 4 0 -4.44089e-16 0 
25 5 0 -4.44089e-16 0 
26 6 0 -4.44089e-16 0 
27 5 -4.44089e-16 0 0 
28 6 -4.44089e-16 0 0 
29 5 0 0 0 
30 6 0 0 0 
31 1 0 0 0 
32 2 0 0 0 
33 3 0 0 0 
34 4 0 0 0 
35 5 0 0 0 
36 6 0 0 0 
37 5 0 0 0 
38 6 0 0 0 
39 5 0 0 0 
40 6 0 0 0 
41 1 0 3.46945e-18 0 
42 2 0 3.46945e-18 0 
43 3 0 0 0 
44 4 0 0 0 
45 5 0 0 0 
46 6 0 0 0 
47 5 0 0 0 
48 6 0 0 0 
49 5 0 0 0 
50 6 0 0 0 
51 1 6.93889e-18 0 0 
52 2 6.93889e-18 0 0 
53 3 0 0 0 
54 4 0 0 0 
55 5 6.93889e-18 0 0 
56 6 6.93889e-18 0 0 
57 5 0 0 0 
58 6 0 0 0 
59 5 0 0 0 
60 6 0 0 0 
61 1 0 0 0 
62 2 0 0 0 
63 3 0 0 0 
64 4 0 0 0 
65 5 0 0 0 
66 6 0 0 0 
67 5 0 0 0 
68 6 0 0 0 
69 5 0 -4.44089e-16 0 
70 6 0 -4.44089e-16 0 
71 1 0 0 0 
72 2 0 0 0 
73 3 0 0 0 
74 4 0 0 0 
75 5 0 0 0 
76 6 0 0 0 
77 5 0 0 0 
78 6 0 0 0 
79 5 0 0 0 
80 6 0 0 0 
81 1 0 6.93889e-18 0 
82 2 0 6.93889e-18 0 
83 3 0 0 0 
84 4 0 0 0 
85 5 0 0 0 
86 6 0 0 0 
87 5 0 1.38778e-17 0 
88 6 0 1.38778e-17 0 
89 5 0 0 0 
90 6 0 0 0 
181 1 0 0 0 
182 2 0 0 0 
183 3 0 0 0 
184 4 0 0 0 
185 5 6.93889e-18 0 0 
186 6 6.93889e-18 0 0 
187 5 0 0 0 
188 6 0 0 0 
189 5 0 0 0 
190 6 0 0 0 
191 1 0 0 0 
192 2 0 0 0 
193 3 0 0 0 
194 4 0 0 0 
195 5 6.93889e-18 0 0 
196 6 6.93889e-18 0 0 
197 5 0 -8.88178e-16 0 
198 6 0 -8.88178e-16 0 
199 5 0 -1.77636e-15 0 
200 6 0 -1.77636e-15 0 
201 1 0 0 0 
202 2 0 0 0 
203 3 0 0 0 
204 4 0 0 0 
205 5 0 0 0 
206 6 0 0 0 
207 5 0 0 0 
208 6 0 0 0 
209 5 0 0 0 
210 6 0 0 0 
211 1 0 0 0 
212 2 0 0 0 
213 3 0 0 0 
214 4 0 0 0 
215 5 0 0 0 
216 6 0 0 0 
217 5 0 0 0 
218 6 0 0 0 
219 5 0 0 0 
220 6 0 0 0 
221 1 -6.93889e-18 0 0 
222 2 -6.93889e-18 0 0 
223 3 0 0 0 
224 4 0 0 0 
225 5 0 0 0 
226 6 0 0 0 
227 5 0 0 0 
228 6 0 0 0 
229 5 0 0 0 
230 6 0 0 0 
231 1 0 -8.88178e-16 0 
232 2 0 -8.88178e-16 0 
233 3 0 0 0 
234 4 0 0 0 
235 5 0 0 0 
236 6 0 0 0 
237 5 0 0 0 
238 6 0 0 0 
239 5 0 0 0 
240 6 0 0 0 
241 1 0 0 0 
242 2 0 0 0 
243 3 0 0 0 
244 4 0 0 0 
245 5 0 0 0 
246 6 0 0 0 
247 5 0 0 0 
248 6 0 0 0 
249 5 0 0 0 
250 6 0 0 0 
251 1 0 0 0 
252 2 0 0 0 
253 3 0 0 0 
254 4 0 0 0 
255 5 0 0 0 
256 6 0 0 0 
257 5 0 0 0 
258 6 0 0 0 
259 5 0 0 0 
260 6 0 0 0 
261 1 0 0 0 
262 2 0 0 0 
263 3 0 0 0 
264 4 0 0 0 
265 5 0 0 0 
266 6 0 0 0 
267 5 0 -8.88178e-16 0 
268 6 0 -8.88178e-16 0 
269 5 -4.44089e-16 -1.77636e-15 0 
270 6 -4.44089e-16 -1.77636e-15 0 
361 1 0 0 0 
362 2 0 0 0 
363 3 0 0 0 
364 4 0 0 0 
365 5 0 0 0 
366 6 0 0 0 
367 5 0 0 0 
368 6 0 0 0 
369 5 0 0 0 
370 6 0 0 0 
371 1 0 0 0 
372 2 0 0 0 
373 3 0 0 0 
374 4 0 0 0 
375 5 0 0 0 
376 6 0 0 0 
377 5 0 0 0 
378 6 0 0 0 
379 5 0 0 0 
380 6 0 0 0 
381 1 0 0 0 
382 2 0 0 0 
383 3 0 0 0 
384 4 0 0 0 
385 5 0 0 0 
386 6 0 0 0 
387 5 0 0 0 
388 6 0 0 0 
389 5 0 0 0 
390 6 0 0 0 
391 1 -1.38778e-17 -1.77636e-15 0 
392 2 -1.38778e-17 -1.77636e-15 0 
393 3 0 0 0 
394 4 0 0 0 
395 5 0 0 0 
396 6 0 0 0 
397 5 0 0 0 
398 6 0 0 0 
399 5 0 -1.77636e-15 0 
400 6 0 -1.77636e-15 0 
401 1 0 0 0 
402 2 0 0 0 
403 3 0 0 0 
404 4 0 0 0 
405 5 1.38778e-17 0 0 
406 6 1.38778e-17 0 0 
407 5 0 0 0 
408 6 0 0 0 
409 5 0 0 0 
410 6 0 0 0 
411 1 1.38778e-17 0 0 
412 2 1.38778e-17 0 0 
413 3 0 0 0 
414 4 0 0 0 
415 5 0 0 0 
416 6 0 0 0 
417 5 0 0 0 
418 6 0 0 0 
419 5 0 0 0 
420 6 0 0 0 
421 1 0 0 0 
422 2 0 0 0 
423 3 0 0 0 
424 4 0 0 0 
425 5 0 0 0 
426 6 0 0 0 
427 5 0 0 0 
428 6 0 0 0 
429 5 0 0 0 
430 6 0 0 0 
431 1 0 0 0 
432 2 0 0 0 
433 3 0 0 0 
434 4 0 0 0 
435 5 0 0 0 
436 6 0 0 0 
437 5 0 0 0 
438 6 0 0 0 
439 5 0 0 0 
440 6 0 0 0 
441 1 -1.38778e-17 0 0 
442 2 -1.38778e-17 0 0 
443 3 0 0 0 
444 4 0 0 0 
445 5 0 0 0 
446 6 0 0 0 
447 5 0 0 0 
448 6 0 0 0 
449 5 0 0 0 
450 6 0 0 0 
541 1 0 0 0 
542 2 0 0 0 
543 3 0 0 0 
544 4 0 0 0 
545 5 0 0 0 
546 6 0 0 0 
547 5 0 0 0 
548 6 0 0 0 
549 5 0 0 0 
550 6 0 0 0 
551 1 1.38778e-17 0 0 
552 2 1.38778e-17 0 0 
553 3 0 -1.77636e-15 0 
554 4 0 -1.77636e-15 0 
555 5 0 -1.77636e-15 0 
556 6 0 -1.77636e-15 0 
557 5 0 0 0 
558 6 0 0 0 
559 5 0 0 0 
560 6 0 0 0 
561 1 0 -3.55271e-15 0 
562 2 0 -3.55271e-15 0 
563 3 0 0 0 
564 4 0 0 0 
565 5 0 0 0 
566 6 0 0 0 
567 5 0 0 0 
568 6 0 0 0 
569 5 0 -1.77636e-15 0 
570 6 0 -1.77636e-15 0 
571 1 1.38778e-17 0 0 
572 2 1.38778e-17 0 0 
573 3 0 0 0 
574 4 0 0 0 
575 5 0 0 0 
576 6 0 0 0 
577 5 0 0 0 
578 6 0 0 0 
579 5 0 0 0 
580 6 0 0 0 
581 1 0 0 0 
582 2 0 0 0 
583 3 0 0 0 
584 4 0 0 0 
585 5 1.38778e-17 0 0 
586 6 1.38778e-17 0 0 
587 5 0 0 0 
588 6 0 0 0 
589 5 0 0 0 
590 6 0 0 0 
591 1 0 0 0 
592 2 0 0 0 
593 3 0 0 0 
594 4 0 0 0 
595 5 2.77556e-17 0 0 
596 6 2.77556e-17 0 0 
597 5 0 0 0 
598 6 0 0 0 
599 5 0 0 0 
600 6 0 0 0 
601 1 0 0 0 
602 2 0 0 0 
603 3 0 0 0 
604 4 0 0 0 
605 5 2.77556e-17 0 0 
606 6 2.77556e-17 0 0 
607 5 0 0 0 
608 6 0 0 0 
609 5 0 0 0 
610 6 0 0 0 
611 1 0 0 0 
612 2 0 0 0 
613 3 0 0 0 
614 4 0 0 0 
615 5 0 0 0 
616 6 0 0 0 
617 5 0 0 0 
618 6 0 0 0 
619 5 0 0 0 
620 6 0 0 0 
621 1 0 0 0 
622 2 0 0 0 
623 3 0 0 0 
624 4 0 0 0 
625 5 0 0 0 
626 6 0 0 0 
627 5 0 0 0 
628 6 0 0 0 
629 5 -4.44089e-16 0 0 
630 6 -4.44089e-16 0 0 
721 1 0 0 0 
722 2 0 0 0 
723 3 -4.44089e-16 0 0 
724 4 -4.44089e-16 0 0 
725 5 0 0 0 
726 6 0 0 0 
727 5 0 0 0 
728 6 0 0 0 
729 5 0 0 0 
730 6 0 0 0 
731 1 0 0 0 
732 2 0 0 0 
733 3 0 0 0 
734 4 0 0 0 
735 5 2.77556e-17 0 0 
736 6 2.77556e-17 0 0 
737 5 0 0 0 
738 6 0 0 0 
739 5 0 0 0 
740 6 0 0 0 
741 1 0 0 0 
742 2 0 0 0 
743 3 0 0 0 
744 4 0 0 0 
745 5 0 0 0 
746 6 0 0 0 
747 5 0 0 0 
748 6 0 0 0 
749 5 0 0 0 
750 6 0 0 0 
751 1 1.38778e-17 0 0 
752 2 1.38778e-17 0 0 
753 3 0 0 0 
754 4 0 0 0 
755 5 2.77556e-17 0 0 
756 6 2.77556e-17 0 0 
757 5 0 0 0 
758 6 0 0 0 
759 5 0 0 0 
760 6 0 0 0 
761 1 0 0 0 
762 2 0 0 0 
763 3 0 0 0 
764 4 0 0 0 
765 5 0 0 0 
766 6 0 0 0 
767 5 0 0 0 
768 6 0 0 0 
769 5 -4.44089e-16 0 0 
770 6 -4.44089e-16 0 0 
771 1 0 0 0 
772 2 0 0 0 
773 3 0 0 0 
774 4 0 0 0 
775 5 2.77556e-17 0 0 
776 6 2.77556e-17 0 0 
777 5 0 0 0 
778 6 0 0 0 
779 5 0 0 0 
780 6 0 0 0 
781 1 -2.77556e-17 -3.55271e-15 0 
782 2 -2.77556e-17 -3.55271e-15 0 
783 3 0 0 0 
784 4 0 0 0 
785 5 0 0 0 
786 6 0 0 0 
787 5 0 0 0 
788 6 0 0 0 
789 5 0 -3.55271e-15 0 
790 6 0 -3.55271e-15 0 
791 1 0 0 0 
792 2 0 0 0 
793 3 0 0 0 
794 4 0 0 0 
795 5 0 0 0 
796 6 0 0 0 
797 5 0 0 0 
798 6 0 0 0 
799 5 0 0 0 
800 6 0 0 0 
801 1 0 0 0 
802 2 0 0 0 
803 3 0 0 0 
804 4 0 0 0 
805 5 0 0 0 
806 6 0 0 0 
807 5 0 0 0 
808 6 0 0 0 
809 5 -4.44089e-16 0 0 
810 6 -4.44089e-16 0 0 
1801 1 0 0 0 
1802 2 0 0 0 
1803 3 -1.77636e-15 0 0 
1804 4 -1.77636e-15 0 0 
1805 5 0 0 0 
1806 6 0 0 0 
1807 5 0 4.33681e-19 0 
1808 6 0 4.33681e-19 0 
1809 5 0 0 0 
1810 6 0 0 0 
1811 1 0 8.67362e-19 0 
1812 2 0 8.67362e-19 0 
1813 3 -1.77636e-15 0 0 
1814 4 -1.77636e-15 0 0 
1815 5 0 0 0 
1816 6 0 0 0 
1817 5 -1.77636e-15 0 0 
1818 6 -1.77636e-15 0 0 
1819 5 0 0 0 
1820 6 0 0 0 
1821 1 0 1.73472e-18 0 
1822 2 0 1.73472e-18 0 
1823 3 0 -4.44089e-16 0 
1824 4 0 -4.44089e-16 0 
1825 5 0 -4.44089e-16 0 
1826 6 0 -4.44089e-16 0 
1827 5 0 0 0 
1828 6 0 0 0 
1829 5 0 0 0 
1830 6 0 0 0 
1831 1 0 0 0 
1832 2 0 0 0 
1833 3 -1.77636e-15 0 0 
1834 4 -1.77636e-15 0 0 
1835 5 0 0 0 
1836 6 0 0 0 
1837 5 -1.77636e-15 0 0 
1838 6 -1.77636e-15 0 0 
1839 5 0 0 0 
1840 6 0 0 0 
1841 1 0 3.46945e-18 0 
1842 2 0 3.46945e-18 0 
1843 3 0 0 0 
1844 4 0 0 0 
1845 5 0 0 0 
1846 6 0 0 0 
1847 5 0 0 0 
1848 6 0 0 0 
1849 5 0 0 0 
1850 6 0 0 0 
1851 1 -8.88178e-16 0 0 
1852 2 -8.88178e-16 0 0 
1853 3 0 0 0 
1854 4 0 0 0 
1855 5 0 0 0 
1856 6 0 0 0 
1857 5 0 0 0 
1858 6 0 0 0 
1859 5 -1.77636e-15 0 0 
1860 6 -1.77636e-15 0 0 
1861 1 0 0 0 
1862 2 0 0 0 
1863 3 0 0 0 
1864 4 0 0 0 
1865 5 0 0 0 
1866 6 0 0 0 
1867 5 -1.77636e-15 0 0 
1868 6 -1.77636e-15 0 0 
1869 5 0 -4.44089e-16 0 
1870 6 0 -4.44089e-16 0 
1871 1 0 0 0 
1872 2 0 0 0 
1873 3 -1.77636e-15 0 0 
1874 4 -1.77636e-15 0 0 
1875 5 0 0 0 
1876 6 0 0 0 
1877 5 0 0 0 
1878 6 0 0 0 
1879 5 0 0 0 
1880 6 0 0 0 
1881 1 0 6.93889e-18 0 
1882 2 0 6.93889e-18 0 
1883 3 0 0 0 
1884 4 0 0 0 
1885 5 0 0 0 
1886 6 0 0 0 
1887 5 -1.77636e-15 1.38778e-17 0 
1888 6 -1.77636e-15 1.38778e-17 0 
1889 5 0 0 0 
1890 6 0 0 0 
1981 1 0 0 0 
1982 2 0 0 0 
1983 3 0 0 0 
1984 4 0 0 0 
1985 5 0 0 0 
1986 6 0 0 0 
1987 5 -1.77636e-15 0 0 
1988 6 -1.77636e-15 0 0 
1989 5 0 0 0 
1990 6 0 0 0 
1991 1 0 0 0 
1992 2 0 0 0 
1993 3 -1.77636e-15 0 0 
1994 4 -1.77636e-15 0 0 
1995 5 0 0 0 
1996 6 0 0 0 
1997 5 -1.77636e-15 -8.88178e-16 0 
1998 6 -1.77636e-15 -8.88178e-16 0 
1999 5 0 -1.77636e-15 0 
2000 6 0 -1.77636e-15 0 
2001 1 0 0 0 
2002 2 0 0 0 
2003 3 -1.77636e-15 0 0 
2004 4 -1.77636e-15 0 0 
2005 5 0 0 0 
2006 6 0 0 0 
2007 5 0 0 0 
2008 6 0 0 0 
2009 5 0 0 0 
2010 6 0 0 0 
2011 1 0 0 0 
2012 2 0 0 0 
2013 3 0 0 0 
2014 4 0 0 0 
2015 5 0 0 0 
2016 6 0 0 0 
2017 5 0 0 0 
2018 6 0 0 0 
2019 5 0 0 0 
2020 6 0 0 0 
2021 1 0 0 0 
2022 2 0 0 0 
2023 3 -1.77636e-15 0 0 
2024 4 -1.77636e-15 0 0 
2025 5 0 0 0 
2026 6 0 0 0 
2027 5 -1.77636e-15 0 0 
2028 6 -1.77636e-15 0 0 
2029 5 0 0 0 
2030 6 0 0 0 
2031 1 0 -8.88178e-16 0 
2032 2 0 -8.88178e-16 0 
2033 3 0 0 0 
2034 4 0 0 0 
2035 5 0 0 0 
2036 6 0 0 0 
2037 5 -1.77636e-15 0 0 
2038 6 -1.77636e-15 0 0 
2039 5 0 0 0 
2040 6 0 0 0 
2041 1 0 0 0 
2042 2 0 0 0 
2043 3 0 0 0 
2044 4 0 0 0 
2045 5 0 0 0 
2046 6 0 0 0 
2047 5 0 0 0 
2048 6 0 0 0 
2049 5 0 0 0 
2050 6 0 0 0 
2051 1 0 0 0 
2052 2 0 0 0 
2053 3 0 0 0 
2054 4 0 0 0 
2055 5 0 0 0 
2056 6 0 0 0 
2057 5 -1.77636e-15 0 0 
2058 6 -1.77636e-15 0 0 
2059 5 0 0 0 
2060 6 0 0 0 
2061 1 0 0 0 
2062 2 0 0 0 
2063 3 -1.77636e-15 0 0 
2064 4 -1.77636e-15 0 0 
2065 5 0 0 0 
2066 6 0 0 0 
2067 5 -1.77636e-15 -8.88178e-16 0 
2068 6 -1.77636e-15 -8.88178e-16 0 
2069 5 0 -1.77636e-15 0 
2070 6 0 -1.77636e-15 0 
2161 1 0 0 0 
2162 2 0 0 0 
2163 3 -1.77636e-15 0 0 
2164 4 -1.77636e-15 0 0 
2165 5 0 0 0 
2166 6 0 0 0 
2167 5 0 0 0 
2168 6 0 0 0 
2169 5 0 0 0 
2170 6 0 0 0 
2171 1 0 0 0 
2172 2 0 0 0 
2173 3 -1.77636e-15 0 0 
2174 4 -1.77636e-15 0 0 
2175 5 0 0 0 
2176 6 0 0 0 
2177 5 -1.77636e-15 0 0 
2178 6 -1.77636e-15 0 0 
2179 5 0 0 0 
2180 6 0 0 0 
2181 1 0 0 0 
2182 2 0 0 0 
2183 3 0 0 0 
2184 4 0 0 0 
2185 5 0 0 0 
2186 6 0 0 0 
2187 5 0 0 0 
2188 6 0 0 0 
2189 5 0 0 0 
2190 6 0 0 0 
2191 1 0 -1.77636e-15 0 
2192 2 0 -1.77636e-15 0 
2193 3 -1.77636e-15 0 0 
2194 4 -1.77636e-15 0 0 
2195 5 0 0 0 
2196 6 0 0 0 
2197 5 -1.77636e-15 0 0 
2198 6 -1.77636e-15 0 0 
2199 5 0 -1.77636e-15 0 
2200 6 0 -1.77636e-15 0 
2201 1 0 0 0 
2202 2 0 0 0 
2203 3 0 0 0 
2204 4 0 0 0 
2205 5 0 0 0 
2206 6 0 0 0 
2207 5 0 0 0 
2208 6 0 0 0 
2209 5 0 0 0 
2210 6 0 0 0 
2211 1 0 0 0 
2212 2 0 0 0 
2213 3 0 0 0 
2214 4 0 0 0 
2215 5 0 0 0 
2216 6 0 0 0 
2217 5 0 0 0 
2218 6 0 0 0 
2219 5 0 0 0 
2220 6 0 0 0 
2221 1 0 0 0 
2222 2 0 0 0 
2223 3 0 0 0 
2224 4 0 0 0 
2225 5 0 0 0 
2226 6 0 0 0 
2227 5 -1.77636e-15 0 0 
2228 6 -1.77636e-15 0 0 
2229 5 0 0 0 
2230 6 0 0 0 
2231 1 0 0 0 
2232 2 0 0 0 
2233 3 -1.77636e-15 0 0 
2234 4 -1.77636e-15 0 0 
2235 5 0 0 0 
2236 6 0 0 0 
2237 5 0 0 0 
2238 6 0 0 0 
2239 5 0 0 0 
2240 6 0 0 0 
2241 1 0 0 0 
2242 2 0 0 0 
2243 3 0 0 0 
2244 4 0 0 0 
2245 5 0 0 0 
2246 6 0 0 0 
2247 5 -1.77636e-15 0 0 
2248 6 -1.77636e-15 0 0 
2249 5 0 0 0 
2250 6 0 0 0 
2341 1 0 0 0 
2342 2 0 0 0 
2343 3 0 0 0 
2344 4 0 0 0 
2345 5 0 0 0 
2346 6 0 0 0 
2347 5 -1.77636e-15 0 0 
2348 6 -1.77636e-15 0 0 
2349 5 0 0 0 
2350 6 0 0 0 
2351 1 0 0 0 
2352 2 0 0 0 
2353 3 -1.77636e-15 -1.77636e-15 0 
2354 4 -1.77636e-15 -1.77636e-15 0 
2355 5 0 -1.77636e-15 0 
2356 6 0 -1.77636e-15 0 
2357 5 -1.77636e-15 0 0 
2358 6 -1.77636e-15 0 0 
2359 5 -1.77636e-15 0 0 
2360 6 -1.77636e-15 0 0 
2361 1 0 -3.55271e-15 0 
2362 2 0 -3.55271e-15 0 
2363 3 -1.77636e-15 0 0 
2364 4 -1.77636e-15 0 0 
2365 5 0 0 0 
2366 6 0 0 0 
2367 5 0 0 0 
2368 6 0 0 0 
2369 5 0 -1.77636e-15 0 
2370 6 0 -1.77636e-15 0 
2371 1 0 0 0 
2372 2 0 0 0 
2373 3 0 0 0 
2374 4 0 0 0 
2375 5 0 0 0 
2376 6 0 0 0 
2377 5 0 0 0 
2378 6 0 0 0 
2379 5 0 0 0 
2380 6 0 0 0 
2381 1 0 0 0 
2382 2 0 0 0 
2383 3 -1.77636e-15 0 0 
2384 4 -1.77636e-15 0 0 
2385 5 0 0 0 
2386 6 0 0 0 
2387 5 -1.77636e-15 0 0 
2388 6 -1.77636e-15 0 0 
2389 5 0 0 0 
2390 6 0 0 0 
2391 1 0 0 0 
2392 2 0 0 0 
2393 3 0 0 0 
2394 4 0 0 0 
2395 5 0 0 0 
2396 6 0 0 0 
2397 5 0 0 0 
2398 6 0 0 0 
2399 5 0 0 0 
2400 6 0 0 0 
2401 1 0 0 0 
2402 2 0 0 0 
2403 3 -1.77636e-15 0 0 
2404 4 -1.77636e-15 0 0 
2405 5 0 0 0 
2406 6 0 0 0 
2407 5 0 0 0 
2408 6 0 0 0 
2409 5 0 0 0 
2410 6 0 0 0 
2411 1 0 0 0 
2412 2 0 0 0 
2413 3 0 0 0 
2414 4 0 0 0 
2415 5 0 0 0 
2416 6 0 0 0 
2417 5 -1.77636e-15 0 0 
2418 6 -1.77636e-15 0 0 
2419 5 0 0 0 
2420 6 0 0 0 
2421 1 0 0 0 
2422 2 0 0 0 
2423 3 -1.77636e-15 0 0 
2424 4 -1.77636e-15 0 0 
2425 5 0 0 0 
2426 6 0 0 0 
2427 5 -1.77636e-15 0 0 
2428 6 -1.77636e-15 0 0 
2429 5 -1.77636e-15 0 0 
2430 6 -1.77636e-15 0 0 
2521 1 0 0 0 
2522 2 0 0 0 
2523 3 -1.77636e-15 0 0 
2524 4 -1.77636e-15 0 0 
2525 5 0 0 0 
2526 6 0 0 0 
2527 5 0 0 0 
2528 6 0 0 0 
2529 5 0 0 0 
2530 6 0 0 0 
2531 1 0 0 0 
2532 2 0 0 0 
2533 3 -1.77636e-15 0 0 
2534 4 -1.77636e-15 0 0 
2535 5 0 0 0 
2536 6 0 0 0 
2537 5 -1.77636e-15 0 0 
2538 6 -1.77636e-15 0 0 
2539 5 0 0 0 
2540 6 0 0 0 
2541 1 0 0 0 
2542 2 0 0 0 
2543 3 0 0 0 
2544 4 0 0 0 
2545 5 0 0 0 
2546 6 0 0 0 
2547 5 0 0 0 
2548 6 0 0 0 
2549 5 0 0 0 
2550 6 0 0 0 
2551 1 0 0 0 
2552 2 0 0 0 
2553 3 -1.77636e-15 0 0 
2554 4 -1.77636e-15 0 0 
2555 5 0 0 0 
2556 6 0 0 0 
2557 5 -1.77636e-15 0 0 
2558 6 -1.77636e-15 0 0 
2559 5 0 0 0 
2560 6 0 0 0 
2561 1 0 0 0 
2562 2 0 0 0 
2563 3 -1.77636e-15 0 0 
2564 4 -1.77636e-15 0 0 
2565 5 0 0 0 
2566 6 0 0 0 
2567 5 0 0 0 
2568 6 0 0 0 
2569 5 0 0 0 
2570 6 0 0 0 
2571 1 0 0 0 
2572 2 0 0 0 
2573 3 0 0 0 
2574 4 0 0 0 
2575 5 0 0 0 
2576 6 0 0 0 
2577 5 0 0 0 
2578 6 0 0 0 
2579 5 0 0 0 
2580 6 0 0 0 
2581 1 0 -3.55271e-15 0 
2582 2 0 -3.55271e-15 0 
2583 3 0 0 0 
2584 4 0 0 0 
2585 5 0 0 0 
2586 6 0 0 0 
2587 5 -1.77636e-15 0 0 
2588 6 -1.77636e-15 0 0 
2589 5 0 -3.55271e-15 0 
2590 6 0 -3.55271e-15 0 
2591 1 0 0 0 
2592 2 0 0 0 
2593 3 -1.77636e-15 0 0 
2594 4 -1.77636e-15 0 0 
2595 5 0 0 0 
2596 6 0 0 0 
2597 5 0 0 0 
2598 6 0 0 0 
2599 5 0 0 0 
2600 6 0 0 0 
2601 1 0 0 0 
2602 2 0 0 0 
2603 3 0 0 0 
2604 4 0 0 0 
2605 5 0 0 0 
2606 6 0 0 0 
2607 5 -1.77636e-15 0 0 
2608 6 -1.77636e-15 0 0 
2609 5 0 0 0 
2610 6 0 0 0 
3601 1 0 0 0 
3602 2 0 0 0 
3603 3 0 0 0 
3604 4 0 0 0 
3605 5 0 0 0 
3606 6 0 0 0 
3607 5 0 4.33681e-19 0 
3608 6 0 4.33681e-19 0 
3609 5 0 0 0 
3610 6 0 0 0 
3611 1 0 8.67362e-19 0 
3612 2 0 8.67362e-19 0 
3613 3 0 0 0 
3614 4 0 0 0 
3615 5 -1.77636e-15 0 0 
3616 6 -1.77636e-15 0 0 
3617 5 0 0 0 
3618 6 0 0 0 
3619 5 0 0 0 
3620 6 0 0 0 
3621 1 0 1.73472e-18 0 
3622 2 0 1.73472e-18 0 
3623 3 -1.77636e-15 -4.44089e-16 0 
3624 4 -1.77636e-15 -4.44089e-16 0 
3625 5 -1.77636e-15 -4.44089e-16 0 
3626 6 -1.77636e-15 -4.44089e-16 0 
3627 5 -1.77636e-15 0 0 
3628 6 -1.77636e-15 0 0 
3629 5 0 0 0 
3630 6 0 0 0 
3631 1 -1.77636e-15 0 0 
3632 2 -1.77636e-15 0 0 
3633 3 -1.77636e-15 0 0 
3634 4 -1.77636e-15 0 0 
3635 5 -1.77636e-15 0 0 
3636 6 -1.77636e-15 0 0 
3637 5 -1.77636e-15 0 0 
3638 6 -1.77636e-15 0 0 
3639 5 -1.77636e-15 0 0 
3640 6 -1.77636e-15 0 0 
3641 1 0 3.46945e-18 0 
3642 2 0 3.46945e-18 0 
3643 3 0 0 0 
3644 4 0 0 0 
3645 5 0 0 0 
3646 6 0 0 0 
3647 5 0 0 0 
3648 6 0 0 0 
3649 5 0 0 0 
3650 6 0 0 0 
3651 1 0 0 0 
3652 2 0 0 0 
3653 3 0 0 0 
3654 4 0 0 0 
3655 5 0 0 0 
3656 6 0 0 0 
3657 5 -1.77636e-15 0 0 
3658 6 -1.77636e-15 0 0 
3659 5 0 0 0 
3660 6 0 0 0 
3661 1 0 0 0 
3662 2 0 0 0 
3663 3 -1.77636e-15 0 0 
3664 4 -1.77636e-15 0 0 
3665 5 0 0 0 
3666 6 0 0 0 
3667 5 0 0 0 
3668 6 0 0 0 
3669 5 0 -4.44089e-16 0 
3670 6 0 -4.44089e-16 0 
3671 1 0 0 0 
3672 2 0 0 0 
3673 3 0 0 0 
3674 4 0 0 0 
3675 5 0 0 0 
3676 6 0 0 0 
3677 5 0 0 0 
3678 6 0 0 0 
3679 5 0 0 0 
3680 6 0 0 0 
3681 1 0 6.93889e-18 0 
3682 2 0 6.93889e-18 0 
3683 3 0 0 0 
3684 4 0 0 0 
3685 5 0 0 0 
3686 6 0 0 0 
3687 5 0 1.38778e-17 0 
3688 6 0 1.38778e-17 0 
3689 5 0 0 0 
3690 6 0 0 0 
3781 1 0 0 0 
3782 2 0 0 0 
3783 3 -1.77636e-15 0 0 
3784 4 -1.77636e-15 0 0 
3785 5 0 0 0 
3786 6 0 0 0 
3787 5 0 0 0 
3788 6 0 0 0 
3789 5 0 0 0 
3790 6 0 0 0 
3791 1 0 0 0 
3792 2 0 0 0 
3793 3 -1.77636e-15 0 0 
3794 4 -1.77636e-15 0 0 
3795 5 0 0 0 
3796 6 0 0 0 
3797 5 0 -8.88178e-16 0 
3798 6 0 -8.88178e-16 0 
3799 5 0 -1.77636e-15 0 
3800 6 0 -1.77636e-15 0 
3801 1 -1.77636e-15 0 0 
3802 2 -1.77636e-15 0 0 
3803 3 0 0 0 
3804 4 0 0 0 
3805 5 -1.77636e-15 0 0 
3806 6 -1.77636e-15 0 0 
3807 5 0 0 0 
3808 6 0 0 0 
3809 5 0 0 0 
3810 6 0 0 0 
3811 1 0 0 0 
3812 2 0 0 0 
3813 3 -3.55271e-15 0 0 
3814 4 -3.55271e-15 0 0 
3815 5 -1.77636e-15 0 0 
3816 6 -1.77636e-15 0 0 
3817 5 -1.77636e-15 0 0 
3818 6 -1.77636e-15 0 0 
3819 5 0 0 0 
3820 6 0 0 0 
3821 1 0 0 0 
3822 2 0 0 0 
3823 3 0 0 0 
3824 4 0 0 0 
3825 5 0 0 0 
3826 6 0 0 0 
3827 5 0 0 0 
3828 6 0 0 0 
3829 5 0 0 0 
3830 6 0 0 0 
3831 1 0 -8.88178e-16 0 
3832 2 0 -8.88178e-16 0 
3833 3 0 0 0 
3834 4 0 0 0 
3835 5 0 0 0 
3836 6 0 0 0 
3837 5 0 0 0 
3838 6 0 0 0 
3839 5 0 0 0 
3840 6 0 0 0 
3841 1 0 0 0 
3842 2 0 0 0 
3843 3 0 0 0 
3844 4 0 0 0 
3845 5 0 0 0 
3846 6 0 0 0 
3847 5 -1.77636e-15 0 0 
3848 6 -1.77636e-15 0 0 
3849 5 0 0 0 
3850 6 0 0 0 
3851 1 0 0 0 
3852 2 0 0 0 
3853 3 -1.77636e-15 0 0 
3854 4 -1.77636e-15 0 0 
3855 5 0 0 0 
3856 6 0 0 0 
3857 5 -1.77636e-15 0 0 
3858 6 -1.77636e-15 0 0 
3859 5 -1.77636e-15 0 0 
3860 6 -1.77636e-15 0 0 
3861 1 0 0 0 
3862 2 0 0 0 
3863 3 0 0 0 
3864 4 0 0 0 
3865 5 0 0 0 
3866 6 0 0 0 
3867 5 0 -8.88178e-16 0 
3868 6 0 -8.88178e-16 0 
3869 5 0 -1.77636e-15 0 
3870 6 0 -1.77636e-15 0 
3961 1 0 0 0 
3962 2 0 0 0 
3963 3 0 0 0 
3964 4 0 0 0 
3965 5 0 0 0 
3966 6 0 0 0 
3967 5 -1.77636e-15 0 0 
3968 6 -1.77636e-15 0 0 
3969 5 0 0 0 
3970 6 0 0 0 
3971 1 0 0 0 
3972 2 0 0 0 
3973 3 -1.77636e-15 0 0 
3974 4 -1.77636e-15 0 0 
3975 5 -1.77636e-15 0 0 
3976 6 -1.77636e-15 0 0 
3977 5 -1.77636e-15 0 0 
3978 6 -1.77636e-15 0 0 
3979 5 -1.77636e-15 0 0 
3980 6 -1.77636e-15 0 0 
3981 1 0 0 0 
3982 2 0 0 0 
3983 3 -1.77636e-15 0 0 
3984 4 -1.77636e-15 0 0 
3985 5 -1.77636e-15 0 0 
3986 6 -1.77636e-15 0 0 
3987 5 0 0 0 
3988 6 0 0 0 
3989 5 0 0 0 
3990 6 0 0 0 
3991 1 -1.77636e-15 -1.77636e-15 0 
3992 2 -1.77636e-15 -1.77636e-15 0 
3993 3 0 0 0 
3994 4 0 0 0 
3995 5 -1.77636e-15 0 0 
3996 6 -1.77636e-15 0 0 
3997 5 0 0 0 
3998 6 0 0 0 
3999 5 0 -1.77636e-15 0 
4000 6 0 -1.77636e-15 0 
4001 1 0 0 0 
4002 2 0 0 0 
4003 3 0 0 0 
4004 4 0 0 0 
4005 5 0 0 0 
4006 6 0 0 0 
4007 5 0 0 0 
4008 6 0 0 0 
4009 5 0 0 0 
4010 6 0 0 0 
4011 1 0 0 0 
4012 2 0 0 0 
4013 3 0 0 0 
4014 4 0 0 0 
4015 5 0 0 0 
4016 6 0 0 0 
4017 5 0 0 0 
4018 6 0 0 0 
4019 5 0 0 0 
4020 6 0 0 0 
4021 1 0 0 0 
4022 2 0 0 0 
4023 3 0 0 0 
4024 4 0 0 0 
4025 5 0 0 0 
4026 6 0 0 0 
4027 5 0 0 0 
4028 6 0 0 0 
4029 5 0 0 0 
4030 6 0 0 0 
4031 1 0 0 0 
4032 2 0 0 0 
4033 3 0 0 0 
4034 4 0 0 0 
4035 5 0 0 0 
4036 6 0 0 0 
4037 5 -1.77636e-15 0 0 
4038 6 -1.77636e-15 0 0 
4039 5 0 0 0 
4040 6 0 0 0 
4041 1 0 0 0 
4042 2 0 0 0 
4043 3 -1.77636e-15 0 0 
4044 4 -1.77636e-15 0 0 
4045 5 0 0 0 
4046 6 0 0 0 
4047 5 -1.77636e-15 0 0 
4048 6 -1.77636e-15 0 0 
4049 5 -1.77636e-15 0 0 
4050 6 -1.77636e-15 0 0 
4141 1 0 0 0 
4142 2 0 0 0 
4143 3 0 0 0 
4144 4 0 0 0 
4145 5 0 0 0 
4146 6 0 0 0 
4147 5 0 0 0 
4148 6 0 0 0 
4149 5 0 0 0 
4150 6 0 0 0 
4151 1 0 0 0 
4152 2 0 0 0 
4153 3 -1.77636e-15 -1.77636e-15 0 
4154 4 -1.77636e-15 -1.77636e-15 0 
4155 5 -1.77636e-15 -1.77636e-15 0 
4156 6 -1.77636e-15 -1.77636e-15 0 
4157 5 -1.77636e-15 0 0 
4158 6 -1.77636e-15 0 0 
4159 5 0 0 0 
4160 6 0 0 0 
4161 1 -1.77636e-15 -3.55271e-15 0 
4162 2 -1.77636e-15 -3.55271e-15 0 
4163 3 -1.77636e-15 0 0 
4164 4 -1.77636e-15 0 0 
4165 5 -1.77636e-15 0 0 
4166 6 -1.77636e-15 0 0 
4167 5 -1.77636e-15 0 0 
4168 6 -1.77636e-15 0 0 
4169 5 -1.77636e-15 -1.77636e-15 0 
4170 6 -1.77636e-15 -1.77636e-15 0 
4171 1 0 0 0 
4172 2 0 0 0 
4173 3 -1.77636e-15 0 0 
4174 4 -1.77636e-15 0 0 
4175 5 -1.77636e-15 0 0 
4176 6 -1.77636e-15 0 0 
4177 5 -1.77636e-15 0 0 
4178 6 -1.77636e-15 0 0 
4179 5 -1.77636e-15 0 0 
4180 6 -1.77636e-15 0 0 
4181 1 0 0 0 
4182 2 0 0 0 
4183 3 0 0 0 
4184 4 0 0 0 
4185 5 0 0 0 
4186 6 0 0 0 
4187 5 0 0 0 
4188 6 0 0 0 
4189 5 0 0 0 
4190 6 0 0 0 
4191 1 0 0 0 
4192 2 0 0 0 
4193 3 -1.77636e-15 0 0 
4194 4 -1.77636e-15 0 0 
4195 5 0 0 0 
4196 6 0 0 0 
4197 5 0 0 0 
4198 6 0 0 0 
4199 5 0 0 0 
4200 6 0 0 0 
4201 1 0 0 0 
4202 2 0 0 0 
4203 3 0 0 0 
4204 4 0 0 0 
4205 5 0 0 0 
4206 6 0 0 0 
4207 5 0 0 0 
4208 6 0 0 0 
4209 5 0 0 0 
4210 6 0 0 0 
4211 1 0 0 0 
4212 2 0 0 0 
4213 3 0 0 0 
4214 4 0 0 0 
4215 5 0 0 0 
4216 6 0 0 0 
4217 5 0 0 0 
4218 6 0 0 0 
4219 5 0 0 0 
4220 6 0 0 0 
4221 1 0 0 0 
4222 2 0 0 0 
4223 3 0 0 0 
4224 4 0 0 0 
4225 5 -1.77636e-15 0 0 
4226 6 -1.77636e-15 0 0 
4227 5 -1.77636e-15 0 0 
4228 6 -1.77636e-15 0 0 
4229 5 0 0 0 
4230 6 0 0 0 
4321 1 0 0 0 
4322 2 0 0 0 
4323 3 0 0 0 
4324 4 0 0 0 
4325 5 0 0 0 
4326 6 0 0 0 
4327 5 0 0 0 
4328 6 0 0 0 
4329 5 0 0 0 
4330 6 0 0 0 
4331 1 0 0 0 
4332 2 0 0 0 
4333 3 0 0 0 
4334 4 0 0 0 
4335 5 -1.77636e-15 0 0 
4336 6 -1.77636e-15 0 0 
4337 5 0 0 0 
4338 6 0 0 0 
4339 5 0 0 0 
4340 6 0 0 0 
4341 1 0 0 0 
4342 2 0 0 0 
4343 3 -1.77636e-15 0 0 
4344 4 -1.77636e-15 0 0 
4345 5 -1.77636e-15 0 0 
4346 6 -1.77636e-15 0 0 
4347 5 -1.77636e-15 0 0 
4348 6 -1.77636e-15 0 0 
4349 5 0 0 0 
4350 6 0 0 0 
4351 1 -1.77636e-15 0 0 
4352 2 -1.77636e-15 0 0 
4353 3 -1.77636e-15 0 0 
4354 4 -1.77636e-15 0 0 
4355 5 -1.77636e-15 0 0 
4356 6 -1.77636e-15 0 0 
4357 5 -1.77636e-15 0 0 
4358 6 -1.77636e-15 0 0 
4359 5 -1.77636e-15 0 0 
4360 6 -1.77636e-15 0 0 
4361 1 0 0 0 
4362 2 0 0 0 
4363 3 0 0 0 
4364 4 0 0 0 
4365 5 0 0 0 
4366 6 0 0 0 
4367 5 0 0 0 
4368 6 0 0 0 
4369 5 0 0 0 
4370 6 0 0 0 
4371 1 0 0 0 
4372 2 0 0 0 
4373 3 0 0 0 
4374 4 0 0 0 
4375 5 0 0 0 
4376 6 0 0 0 
4377 5 0 0 0 
4378 6 0 0 0 
4379 5 0 0 0 
4380 6 0 0 0 
4381 1 0 -3.55271e-15 0 
4382 2 0 -3.55271e-15 0 
4383 3 -1.77636e-15 0 0 
4384 4 -1.77636e-15 0 0 
4385 5 0 0 0 
4386 6 0 0 0 
4387 5 0 0 0 
4388 6 0 0 0 
4389 5 0 -3.55271e-15 0 
4390 6 0 -3.55271e-15 0 
4391 1 0 0 0 
4392 2 0 0 0 
4393 3 -1.77636e-15 0 0 
4394 4 -1.77636e-15 0 0 
4395 5 0 0 0 
4396 6 0 0 0 
4397 5 0 0 0 
4398 6 0 0 0 
4399 5 0 0 0 
4400 6 0 0 0 
4401 1 0 0 0 
4402 2 0 0 0 
4403 3 0 0 0 
4404 4 0 0 0 
4405 5 0 0 0 
4406 6 0 0 0 
4407 5 0 0 0 
4408 6 0 0 0 
4409 5 0 0 0 
4410 6 0 0 0 
5401 1 0 0 0 
5402 2 0 0 0 
5403 3 0 0 0 
5404 4 0 0 0 
5405 5 0 0 0 
5406 6 0 0 0 
5407 5 0 4.33681e-19 0 
5408 6 0 4.33681e-19 0 
5409 5 0 0 0 
5410 6 0 0 0 
5411 1 0 8.67362e-19 0 
5412 2 0 8.67362e-19 0 
5413 3 0 0 0 
5414 4 0 0 0 
5415 5 0 0 0 
5416 6 0 0 0 
5417 5 0 0 0 
5418 6 0 0 0 
5419 5 -1.77636e-15 0 0 
5420 6 -1.77636e-15 0 0 
5421 1 -3.55271e-15 1.73472e-18 0 
5422 2 -3.55271e-15 1.73472e-18 0 
5423 3 -1.77636e-15 -4.44089e-16 0 
5424 4 -1.77636e-15 -4.44089e-16 0 
5425 5 -3.55271e-15 -4.44089e-16 0 
5426 6 -3.55271e-15 -4.44089e-16 0 
5427 5 -1.77636e-15 0 0 
5428 6 -1.77636e-15 0 0 
5429 5 0 0 0 
5430 6 0 0 0 
5431 1 -3.55271e-15 0 0 
5432 2 -3.55271e-15 0 0 
5433 3 0 0 0 
5434 4 0 0 0 
5435 5 0 0 0 
5436 6 0 0 0 
5437 5 0 0 0 
5438 6 0 0 0 
5439 5 -1.77636e-15 0 0 
5440 6 -1.77636e-15 0 0 
5441 1 0 3.46945e-18 0 
5442 2 0 3.46945e-18 0 
5443 3 0 0 0 
5444 4 0 0 0 
5445 5 0 0 0 
5446 6 0 0 0 
5447 5 0 0 0 
5448 6 0 0 0 
5449 5 0 0 0 
5450 6 0 0 0 
5451 1 0 0 0 
5452 2 0 0 0 
5453 3 0 0 0 
5454 4 0 0 0 
5455 5 0 0 0 
5456 6 0 0 0 
5457 5 0 0 0 
5458 6 0 0 0 
5459 5 0 0 0 
5460 6 0 0 0 
5461 1 0 0 0 
5462 2 0 0 0 
5463 3 -1.77636e-15 0 0 
5464 4 -1.77636e-15 0 0 
5465 5 0 0 0 
5466 6 0 0 0 
5467 5 0 0 0 
5468 6 0 0 0 
5469 5 0 -4.44089e-16 0 
5470 6 0 -4.44089e-16 0 
5471 1 -3.55271e-15 0 0 
5472 2 -3.55271e-15 0 0 
5473 3 0 0 0 
5474 4 0 0 0 
5475 5 0 0 0 
5476 6 0 0 0 
5477 5 0 0 0 
5478 6 0 0 0 
5479 5 -1.77636e-15 0 0 
5480 6 -1.77636e-15 0 0 
5481 1 0 6.93889e-18 0 
5482 2 0 6.93889e-18 0 
5483 3 0 0 0 
5484 4 0 0 0 
5485 5 0 0 0 
5486 6 0 0 0 
5487 5 0 1.38778e-17 0 
5488 6 0 1.38778e-17 0 
5489 5 0 0 0 
5490 6 0 0 0 
5581 1 0 0 0 
5582 2 0 0 0 
5583 3 -1.77636e-15 0 0 
5584 4 -1.77636e-15 0 0 
5585 5 -3.55271e-15 0 0 
5586 6 -3.55271e-15 0 0 
5587 5 -1.77636e-15 0 0 
5588 6 -1.77636e-15 0 0 
5589 5 -1.77636e-15 0 0 
5590 6 -1.77636e-15 0 0 
5591 1 -3.55271e-15 0 0 
5592 2 -3.55271e-15 0 0 
5593 3 0 0 0 
5594 4 0 0 0 
5595 5 0 0 0 
5596 6 0 0 0 
5597 5 0 -8.88178e-16 0 
5598 6 0 -8.88178e-16 0 
5599 5 -1.77636e-15 -1.77636e-15 0 
5600 6 -1.77636e-15 -1.77636e-15 0 
5601 1 0 0 0 
5602 2 0 0 0 
5603 3 0 0 0 
5604 4 0 0 0 
5605 5 0 0 0 
5606 6 0 0 0 
5607 5 0 0 0 
5608 6 0 0 0 
5609 5 0 0 0 
5610 6 0 0 0 
5611 1 -3.55271e-15 0 0 
5612 2 -3.55271e-15 0 0 
5613 3 -1.77636e-15 0 0 
5614 4 -1.77636e-15 0 0 
5615 5 -3.55271e-15 0 0 
5616 6 -3.55271e-15 0 0 
5617 5 -1.77636e-15 0 0 
5618 6 -1.77636e-15 0 0 
5619 5 -1.77636e-15 0 0 
5620 6 -1.77636e-15 0 0 
5621 1 0 0 0 
5622 2 0 0 0 
5623 3 0 0 0 
5624 4 0 0 0 
5625 5 0 0 0 
5626 6 0 0 0 
5627 5 0 0 0 
5628 6 0 0 0 
5629 5 0 0 0 
5630 6 0 0 0 
5631 1 0 -8.88178e-16 0 
5632 2 0 -8.88178e-16 0 
5633 3 0 0 0 
5634 4 0 0 0 
5635 5 0 0 0 
5636 6 0 0 0 
5637 5 0 0 0 
5638 6 0 0 0 
5639 5 0 0 0 
5640 6 0 0 0 
5641 1 0 0 0 
5642 2 0 0 0 
5643 3 0 0 0 
5644 4 0 0 0 
5645 5 0 0 0 
5646 6 0 0 0 
5647 5 -1.77636e-15 0 0 
5648 6 -1.77636e-15 0 0 
5649 5 0 0 0 
5650 6 0 0 0 
5651 1 -3.55271e-15 0 0 
5652 2 -3.55271e-15 0 0 
5653 3 0 0 0 
5654 4 0 0 0 
5655 5 0 0 0 
5656 6 0 0 0 
5657 5 0 0 0 
5658 6 0 0 0 
5659 5 -1.77636e-15 0 0 
5660 6 -1.77636e-15 0 0 
5661 1 0 0 0 
5662 2 0 0 0 
5663 3 -1.77636e-15 0 0 
5664 4 -1.77636e-15 0 0 
5665 5 0 0 0 
5666 6 0 0 0 
5667 5 0 -8.88178e-16 0 
5668 6 0 -8.88178e-16 0 
5669 5 0 -1.77636e-15 0 
5670 6 0 -1.77636e-15 0 
5761 1 0 0 0 
5762 2 0 0 0 
5763 3 0 0 0 
5764 4 0 0 0 
5765 5 0 0 0 
5766 6 0 0 0 
5767 5 -1.77636e-15 0 0 
5768 6 -1.77636e-15 0 0 
5769 5 0 0 0 
5770 6 0 0 0 
5771 1 -3.55271e-15 0 0 
5772 2 -3.55271e-15 0 0 
5773 3 0 0 0 
5774 4 0 0 0 
5775 5 0 0 0 
5776 6 0 0 0 
5777 5 0 0 0 
5778 6 0 0 0 
5779 5 -1.77636e-15 0 0 
5780 6 -1.77636e-15 0 0 
5781 1 0 0 0 
5782 2 0 0 0 
5783 3 -1.77636e-15 0 0 
5784 4 -1.77636e-15 0 0 
5785 5 0 0 0 
5786 6 0 0 0 
5787 5 0 0 0 
5788 6 0 0 0 
5789 5 0 0 0 
5790 6 0 0 0 
5791 1 -3.55271e-15 -1.77636e-15 0 
5792 2 -3.55271e-15 -1.77636e-15 0 
5793 3 0 0 0 
5794 4 0 0 0 
5795 5 0 0 0 
5796 6 0 0 0 
5797 5 0 0 0 
5798 6 0 0 0 
5799 5 -1.77636e-15 -1.77636e-15 0 
5800 6 -1.77636e-15 -1.77636e-15 0 
5801 1 0 0 0 
5802 2 0 0 0 
5803 3 0 0 0 
5804 4 0 0 0 
5805 5 0 0 0 
5806 6 0 0 0 
5807 5 0 0 0 
5808 6 0 0 0 
5809 5 0 0 0 
5810 6 0 0 0 
5811 1 0 0 0 
5812 2 0 0 0 
5813 3 0 0 0 
5814 4 0 0 0 
5815 5 0 0 0 
5816 6 0 0 0 
5817 5 0 0 0 
5818 6 0 0 0 
5819 5 -1.77636e-15 0 0 
5820 6 -1.77636e-15 0 0 
5821 1 0 0 0 
5822 2 0 0 0 
5823 3 0 0 0 
5824 4 0 0 0 
5825 5 0 0 0 
5826 6 0 0 0 
5827 5 0 0 0 
5828 6 0 0 0 
5829 5 0 0 0 
5830 6 0 0 0 
5831 1 0 0 0 
5832 2 0 0 0 
5833 3 0 0 0 
5834 4 0 0 0 
5835 5 0 0 0 
5836 6 0 0 0 
5837 5 0 0 0 
5838 6 0 0 0 
5839 5 0 0 0 
5840 6 0 0 0 
5841 1 0 0 0 
5842 2 0 0 0 
5843 3 -1.77636e-15 0 0 
5844 4 -1.77636e-15 0 0 
5845 5 -3.55271e-15 0 0 
5846 6 -3.55271e-15 0 0 
5847 5 -1.77636e-15 0 0 
5848 6 -1.77636e-15 0 0 
5849 5 -1.77636e-15 0 0 
5850 6 -1.77636e-15 0 0 
5941 1 0 0 0 
5942 2 0 0 0 
5943 3 0 0 0 
5944 4 0 0 0 
5945 5 0 0 0 
5946 6 0 0 0 
5947 5 0 0 0 
5948 6 0 0 0 
5949 5 0 0 0 
5950 6 0 0 0 
5951 1 0 0 0 
5952 2 0 0 0 
5953 3 -1.77636e-15 -1.77636e-15 0 
5954 4 -1.77636e-15 -1.77636e-15 0 
5955 5 1.77636e-15 -1.77636e-15 0 
5956 6 1.77636e-15 -1.77636e-15 0 
5957 5 0 0 0 
5958 6 0 0 0 
5959 5 0 0 0 
5960 6 0 0 0 
5961 1 0 -3.55271e-15 0 
5962 2 0 -3.55271e-15 0 
5963 3 -1.77636e-15 0 0 
5964 4 -1.77636e-15 0 0 
5965 5 -3.55271e-15 0 0 
5966 6 -3.55271e-15 0 0 
5967 5 -1.77636e-15 0 0 
5968 6 -1.77636e-15 0 0 
5969 5 -1.77636e-15 -1.77636e-15 0 
5970 6 -1.77636e-15 -1.77636e-15 0 
5971 1 -3.55271e-15 0 0 
5972 2 -3.55271e-15 0 0 
5973 3 0 0 0 
5974 4 0 0 0 
5975 5 0 0 0 
5976 6 0 0 0 
5977 5 0 0 0 
5978 6 0 0 0 
5979 5 -1.77636e-15 0 0 
5980 6 -1.77636e-15 0 0 
5981 1 0 0 0 
5982 2 0 0 0 
5983 3 0 0 0 
5984 4 0 0 0 
5985 5 0 0 0 
5986 6 0 0 0 
5987 5 0 0 0 
5988 6 0 0 0 
5989 5 0 0 0 
5990 6 0 0 0 
5991 1 -3.55271e-15 0 0 
5992 2 -3.55271e-15 0 0 
5993 3 0 0 0 
5994 4 0 0 0 
5995 5 0 0 0 
5996 6 0 0 0 
5997 5 0 0 0 
5998 6 0 0 0 
5999 5 0 0 0 
6000 6 0 0 0 
6001 1 0 0 0 
6002 2 0 0 0 
6003 3 0 0 0 
6004 4 0 0 0 
6005 5 0 0 0 
6006 6 0 0 0 
6007 5 0 0 0 
6008 6 0 0 0 
6009 5 0 0 0 
6010 6 0 0 0 
6011 1 0 0 0 
6012 2 0 0 0 
6013 3 0 0 0 
6014 4 0 0 0 
6015 5 0 0 0 
6016 6 0 0 0 
6017 5 0 0 0 
6018 6 0 0 0 
6019 5 -1.77636e-15 0 0 
6020 6 -1.77636e-15 0 0 
6021 1 0 0 0 
6022 2 0 0 0 
6023 3 0 0 0 
6024 4 0 0 0 
6025 5 0 0 0 
6026 6 0 0 0 
6027 5 -1.77636e-15 0 0 
6028 6 -1.77636e-15 0 0 
6029 5 0 0 0 
6030 6 0 0 0 
6121 1 0 0 0 
6122 2 0 0 0 
6123 3 0 0 0 
6124 4 0 0 0 
6125 5 0 0 0 
6126 6 0 0 0 
6127 5 0 0 0 
6128 6 0 0 0 
6129 5 0 0 0 
6130 6 0 0 0 
6131 1 0 0 0 
6132 2 0 0 0 
6133 3 0 0 0 
6134 4 0 0 0 
6135 5 0 0 0 
6136 6 0 0 0 
6137 5 0 0 0 
6138 6 0 0 0 
6139 5 -1.77636e-15 0 0 
6140 6 -1.77636e-15 0 0 
6141 1 -3.55271e-15 0 0 
6142 2 -3.55271e-15 0 0 
6143 3 -1.77636e-15 0 0 
6144 4 -1.77636e-15 0 0 
6145 5 -3.55271e-15 0 0 
6146 6 -3.55271e-15 0 0 