ITEM: TIMESTEP
0
ITEM: NUMBER OF ATOMS
2520
ITEM: BOX BOUNDS xy xz yz pp pp ss
0.0000000000000000e+00 2.4232869309590200e+01 9.3083474394699994e-02
0.0000000000000000e+00 2.4139785835195500e+01 7.9785835195500004e-02
-1.3037754166769078e-02 2.6078037754166775e+01 7.9785835195500004e-02
ITEM: ATOMS id type c_dr[1] c_dr[2] c_dr[3] 
1 1 0 0 0 
2 2 0 0 0 
3 3 0 0 0 
4 4 0 0 0 
5 5 0 0 0 
6 6 0 0 0 
7 5 0 2.60209e-18 0 
8 6 0 2.60209e-18 0 
9 5 8.88178e-16 0 0 
10 6 8.88178e-16 0 0 
11 1 0 5.20417e-18 0 
12 2 0 5.20417e-18 0 
13 3 0 0 0 
14 4 0 0 0 
15 5 0 0 0 
16 6 0 0 0 
17 5 0 0 0 
18 6 0 0 0 
19 5 0 0 0 
20 6 0 0 0 
21 1 0 0 0 
22 2 0 0 0 
23 3 0 0 0 
24 4 0 0 0 
25 5 0 0 0 
26 6 0 0 0 
27 5 0 1.04083e-17 0 
28 6 0 1.04083e-17 0 
29 5 8.88178e-16 0 0 
30 6 8.88178e-16 0 0 
31 1 0 0 0 
32 2 0 0 0 
39 5 0 0 0 
40 6 0 0 0 
71 1 -1.04083e-17 0 0 
72 2 -1.04083e-17 0 0 
73 3 0 0 0 
74 4 0 0 0 
75 5 0 0 0 
76 6 0 0 0 
77 5 0 0 0 
78 6 0 0 0 
79 5 8.88178e-16 0 0 
80 6 8.88178e-16 0 0 
81 1 0 0 0 
82 2 0 0 0 
83 3 0 0 0 
84 4 0 0 0 
85 5 0 0 0 
86 6 0 0 0 
87 5 8.88178e-16 0 0 
88 6 8.88178e-16 0 0 
89 5 8.88178e-16 0 0 
90 6 8.88178e-16 0 0 
91 1 0 0 0 
92 2 0 0 0 
93 3 0 0 0 
94 4 0 0 0 
95 5 0 0 0 
96 6 0 0 0 
97 5 0 0 0 
98 6 0 0 0 
99 5 0 0 0 
100 6 0 0 0 
101 1 0 0 0 
102 2 0 0 0 
109 5 0 0 0 
110 6 0 0 0 
141 1 -2.08167e-17 0 0 
142 2 -2.08167e-17 0 0 
143 3 0 0 0 
144 4 0 0 0 
145 5 -2.08167e-17 0 0 
146 6 -2.08167e-17 0 0 
147 5 0 0 0 
148 6 0 0 0 
149 5 0 0 0 
150 6 0 0 0 
151 1 0 0 0 
152 2 0 0 0 
153 3 0 0 0 
154 4 0 0 0 
155 5 0 0 0 
156 6 0 0 0 
157 5 0 0 0 
158 6 0 0 0 
159 5 0 0 0 
160 6 0 0 0 
161 1 -2.08167e-17 0 0 
162 2 -2.08167e-17 0 0 
163 3 0 0 0 
164 4 0 0 0 
165 5 0 0 0 
166 6 0 0 0 
167 5 0 0 0 
168 6 0 0 0 
169 5 0 0 0 
170 6 0 0 0 
171 1 0 0 0 
172 2 0 0 0 
179 5 0 0 0 
180 6 0 0 0 
421 1 0 0 0 
422 2 0 0 0 
423 3 0 0 0 
424 4 0 0 0 
425 5 -1.77636e-15 0 0 
426 6 -1.77636e-15 0 0 
427 5 0 2.60209e-18 0 
428 6 0 2.60209e-18 0 
429 5 -2.66454e-15 0 0 
430 6 -2.66454e-15 0 0 
431 1 1.77636e-15 5.20417e-18 0 
432 2 1.77636e-15 5.20417e-18 0 
433 3 0 0 0 
434 4 0 0 0 
435 5 0 0 0 
436 6 0 0 0 
437 5 0 0 0 
438 6 0 0 0 
439 5 0 0 0 
440 6 0 0 0 
441 1 0 0 0 
442 2 0 0 0 
443 3 0 0 0 
444 4 0 0 0 
445 5 0 0 0 
446 6 0 0 0 
447 5 0 1.04083e-17 0 
448 6 0 1.04083e-17 0 
449 5 0 0 0 
450 6 0 0 0 
451 1 0 0 0 
452 2 0 0 0 
459 5 0 0 0 
460 6 0 0 0 
491 1 0 0 0 
492 2 0 0 0 
493 3 0 0 0 
494 4 0 0 0 
495 5 0 0 0 
496 6 0 0 0 
497 5 0 0 0 
498 6 0 0 0 
499 5 0 0 0 
500 6 0 0 0 
501 1 0 0 0 
502 2 0 0 0 
503 3 0 0 0 
504 4 0 0 0 
505 5 0 0 0 
506 6 0 0 0 
507 5 0 0 0 
508 6 0 0 0 
509 5 0 0 0 
510 6 0 0 0 
511 1 0 0 0 
512 2 0 0 0 
513 3 0 0 0 
514 4 0 0 0 
515 5 0 0 0 
516 6 0 0 0 
517 5 0 0 0 
518 6 0 0 0 
519 5 -2.66454e-15 0 0 
520 6 -2.66454e-15 0 0 
521 1 0 0 0 
522 2 0 0 0 
529 5 0 0 0 
530 6 0 0 0 
561 1 0 0 0 
562 2 0 0 0 
563 3 0 0 0 
564 4 0 0 0 
565 5 0 0 0 
566 6 0 0 0 
567 5 0 0 0 
568 6 0 0 0 
569 5 0 0 0 
570 6 0 0 0 
571 1 0 0 0 
572 2 0 0 0 
573 3 0 0 0 
574 4 0 0 0 
575 5 0 0 0 
576 6 0 0 0 
577 5 0 0 0 
578 6 0 0 0 
579 5 2.66454e-15 0 0 
580 6 2.66454e-15 0 0 
581 1 0 0 0 
582 2 0 0 0 
583 3 0 0 0 
584 4 0 0 0 
585 5 0 0 0 
586 6 0 0 0 
587 5 0 0 0 
588 6 0 0 0 
589 5 0 0 0 
590 6 0 0 0 
591 1 0 0 0 
592 2 0 0 0 
599 5 0 0 0 
600 6 0 0 0 
841 1 0 0 0 
842 2 0 0 0 
843 3 0 0 0 
844 4 0 0 0 
845 5 0 0 0 
846 6 0 0 0 
847 5 0 2.60209e-18 0 
848 6 0 2.60209e-18 0 
849 5 0 0 0 
850 6 0 0 0 
851 1 -3.55271e-15 5.20417e-18 0 
852 2 -3.55271e-15 5.20417e-18 0 
853 3 -3.55271e-15 0 0 
854 4 -3.55271e-15 0 0 
855 5 -3.55271e-15 0 0 
856 6 -3.55271e-15 0 0 
857 5 0 0 0 
858 6 0 0 0 
859 5 0 0 0 
860 6 0 0 0 
861 1 0 0 0 
862 2 0 0 0 
863 3 0 0 0 
864 4 0 0 0 
865 5 0 0 0 
866 6 0 0 0 
867 5 0 1.04083e-17 0 
868 6 0 1.04083e-17 0 
869 5 0 0 0 
870 6 0 0 0 
871 1 0 0 0 
872 2 0 0 0 
879 5 0 0 0 
880 6 0 0 0 
911 1 0 0 0 
912 2 0 0 0 
913 3 0 0 0 
914 4 0 0 0 
915 5 0 0 0 
916 6 0 0 0 
917 5 0 0 0 
918 6 0 0 0 
919 5 0 0 0 
920 6 0 0 0 
921 1 0 0 0 
922 2 0 0 0 
923 3 0 0 0 
924 4 0 0 0 
925 5 0 0 0 
926 6 0 0 0 
927 5 0 0 0 
928 6 0 0 0 
929 5 0 0 0 
930 6 0 0 0 
931 1 0 0 0 
932 2 0 0 0 
933 3 0 0 0 
934 4 0 0 0 
935 5 0 0 0 
936 6 0 0 0 
937 5 0 0 0 
938 6 0 0 0 
939 5 0 0 0 
940 6 0 0 0 
941 1 0 0 0 
942 2 0 0 0 
949 5 0 0 0 
950 6 0 0 0 
981 1 0 0 0 
982 2 0 0 0 
983 3 0 0 0 
984 4 0 0 0 
985 5 0 0 0 
986 6 0 0 0 
987 5 0 0 0 
988 6 0 0 0 
989 5 0 0 0 
990 6 0 0 0 
991 1 0 0 0 
992 2 0 0 0 
993 3 0 0 0 
994 4 0 0 0 
995 5 0 0 0 
996 6 0 0 0 
997 5 0 0 0 
998 6 0 0 0 
999 5 0 0 0 
1000 6 0 0 0 
1001 1 0 0 0 
1002 2 0 0 0 
1003 3 0 0 0 
1004 4 0 0 0 
1005 5 0 0 0 
1006 6 0 0 0 
1007 5 0 0 0 
1008 6 0 0 0 
1009 5 0 0 0 
1010 6 0 0 0 
1011 1 0 0 0 
1012 2 0 0 0 
1019 5 0 0 0 
1020 6 0 0 0 
1261 1 0 0 0 
1262 2 0 0 0 
1263 3 0 0 0 
1264 4 0 0 0 
1265 5 0 0 0 
1266 6 0 0 0 
1267 5 0 2.60209e-18 0 
1268 6 0 2.60209e-18 0 
1269 5 0 0 0 
1270 6 0 0 0 
1271 1 0 5.20417e-18 0 
1272 2 0 5.20417e-18 0 
1273 3 0 0 0 
1274 4 0 0 0 
1275 5 0 0 0 
1276 6 0 0 0 
1277 5 0 0 0 
1278 6 0 0 0 
1279 5 0 0 0 
1280 6 0 0 0 
1281 1 5.32907e-15 0 0 
1282 2 5.32907e-15 0 0 
1283 3 0 0 0 
1284 4 0 0 0 
1285 5 0 0 0 
1286 6 0 0 0 
1287 5 0 1.04083e-17 0 
1288 6 0 1.04083e-17 0 
1289 5 0 0 0 
1290 6 0 0 0 
1291 1 0 0 0 
1292 2 0 0 0 
1299 5 0 0 0 
1300 6 0 0 0 
1331 1 0 0 0 
1332 2 0 0 0 
1333 3 0 0 0 
1334 4 0 0 0 
1335 5 0 0 0 
1336 6 0 0 0 
1337 5 0 0 0 
1338 6 0 0 0 
1339 5 0 0 0 
1340 6 0 0 0 
1341 1 0 0 0 
1342 2 0 0 0 
1343 3 -5.32907e-15 0 0 
1344 4 -5.32907e-15 0 0 
1345 5 -5.32907e-15 0 0 
1346 6 -5.32907e-15 0 0 
1347 5 0 0 0 
1348 6 0 0 0 
1349 5 0 0 0 
1350 6 0 0 0 
1351 1 5.32907e-15 0 0 
1352 2 5.32907e-15 0 0 
1353 3 5.32907e-15 0 0 
1354 4 5.32907e-15 0 0 
1355 5 5.32907e-15 0 0 
1356 6 5.32907e-15 0 0 
1357 5 0 0 0 
1358 6 0 0 0 
1359 5 0 0 0 
1360 6 0 0 0 
1361 1 0 0 0 
1362 2 0 0 0 
1369 5 0 0 0 
1370 6 0 0 0 
1401 1 0 0 0 
1402 2 0 0 0 
1403 3 0 0 0 
1404 4 0 0 0 
1405 5 0 0 0 
1406 6 0 0 0 
1407 5 0 0 0 
1408 6 0 0 0 
1409 5 0 0 0 
1410 6 0 0 0 
1411 1 0 0 0 
1412 2 0 0 0 
1413 3 0 0 0 
1414 4 0 0 0 
1415 5 0 0 0 
1416 6 0 0 0 
1417 5 0 0 0 
1418 6 0 0 0 
1419 5 0 0 0 
1420 6 0 0 0 
1421 1 0 0 0 
1422 2 0 0 0 
1423 3 0 0 0 
1424 4 0 0 0 
1425 5 0 0 0 
1426 6 0 0 0 
1427 5 0 0 0 
1428 6 0 0 0 
1429 5 5.32907e-15 0 0 
1430 6 5.32907e-15 0 0 
1431 1 0 0 0 
1432 2 0 0 0 
1439 5 -5.32907e-15 0 0 
1440 6 -5.32907e-15 0 0 
1681 1 0 0 0 
1682 2 0 0 0 
1683 3 0 0 0 
1684 4 0 0 0 
1685 5 0 0 0 
1686 6 0 0 0 
1687 5 0 2.60209e-18 0 
1688 6 0 2.60209e-18 0 
1689 5 0 0 0 
1690 6 0 0 0 
1691 1 0 5.20417e-18 0 
1692 2 0 5.20417e-18 0 
1693 3 0 0 0 
1694 4 0 0 0 
1695 5 0 0 0 
1696 6 0 0 0 
1697 5 -7.10543e-15 0 0 
1698 6 -7.10543e-15 0 0 
1699 5 0 0 0 
1700 6 0 0 0 
1701 1 0 0 0 
1702 2 0 0 0 
1703 3 0 0 0 
1704 4 0 0 0 
1705 5 0 0 0 
1706 6 0 0 0 
1707 5 0 1.04083e-17 0 
1708 6 0 1.04083e-17 0 
1709 5 0 0 0 
1710 6 0 0 0 
1711 1 0 0 0 
1712 2 0 0 0 
1719 5 0 0 0 
1720 6 0 0 0 
1751 1 -7.10543e-15 0 0 
1752 2 -7.10543e-15 0 0 
1753 3 0 0 0 
1754 4 0 0 0 
1755 5 0 0 0 
1756 6 0 0 0 
1757 5 0 0 0 
1758 6 0 0 0 
1759 5 -1.06581e-14 0 0 
1760 6 -1.06581e-14 0 0 
1761 1 0 0 0 
1762 2 0 0 0 
1763 3 0 0 0 
1764 4 0 0 0 
1765 5 0 0 0 
1766 6 0 0 0 
1767 5 0 0 0 
1768 6 0 0 0 
1769 5 0 0 0 
1770 6 0 0 0 
1771 1 0 0 0 
1772 2 0 0 0 
1773 3 0 0 0 
1774 4 0 0 0 
1775 5 0 0 0 
1776 6 0 0 0 
1777 5 0 0 0 
1778 6 0 0 0 
1779 5 7.10543e-15 0 0 
1780 6 7.10543e-15 0 0 
1781 1 0 0 0 
1782 2 0 0 0 
1789 5 0 0 0 
1790 6 0 0 0 
1821 1 0 0 0 
1822 2 0 0 0 
1823 3 0 0 0 
1824 4 0 0 0 
1825 5 0 0 0 
1826 6 0 0 0 
1827 5 0 0 0 
1828 6 0 0 0 
1829 5 0 0 0 
1830 6 0 0 0 
1831 1 0 0 0 
1832 2 0 0 0 
1833 3 0 0 0 
1834 4 0 0 0 
1835 5 0 0 0 
1836 6 0 0 0 
1837 5 0 0 0 
1838 6 0 0 0 
1839 5 0 0 0 
1840 6 0 0 0 
1841 1 0 0 0 
1842 2 0 0 0 
1843 3 -7.10543e-15 0 0 
1844 4 -7.10543e-15 0 0 
1845 5 -7.10543e-15 0 0 
1846 6 -7.10543e-15 0 0 
1847 5 0 0 0 
1848 6 0 0 0 
1849 5 0 0 0 
1850 6 0 0 0 
1851 1 0 0 0 
1852 2 0 0 0 
1859 5 0 0 0 
1860 6 0 0 0 
2101 1 0 0 0 
2102 2 0 0 0 
2103 3 0 0 0 
2104 4 0 0 0 
2105 5 0 0 0 
2106 6 0 0 0 
2107 5 0 2.60209e-18 0 
2108 6 0 2.60209e-18 0 
2109 5 0 0 0 
2110 6 0 0 0 
2111 1 0 5.20417e-18 0 
2112 2 0 5.20417e-18 0 
2113 3 0 0 0 
2114 4 0 0 0 
2115 5 0 0 0 
2116 6 0 0 0 
2117 5 -7.10543e-15 0 0 
2118 6 -7.10543e-15 0 0 
2119 5 0 0 0 
2120 6 0 0 0 
2121 1 0 0 0 
2122 2 0 0 0 
2123 3 0 0 0 
2124 4 0 0 0 
2125 5 0 0 0 
2126 6 0 0 0 
2127 5 0 1.04083e-17 0 
2128 6 0 1.04083e-17 0 
2129 5 0 0 0 
2130 6 0 0 0 
2131 1 0 0 0 
2132 2 0 0 0 
2139 5 0 0 0 
2140 6 0 0 0 
2171 1 -7.10543e-15 0 0 
2172 2 -7.10543e-15 0 0 
2173 3 0 0 0 
2174 4 0 0 0 
2175 5 0 0 0 
2176 6 0 0 0 
2177 5 0 0 0 
2178 6 0 0 0 
2179 5 -1.06581e-14 0 0 
2180 6 -1.06581e-14 0 0 
2181 1 0 0 0 
2182 2 0 0 0 
2183 3 0 0 0 
2184 4 0 0 0 
2185 5 0 0 0 
2186 6 0 0 0 
2187 5 0 0 0 
2188 6 0 0 0 
2189 5 0 0 0 
2190 6 0 0 0 
2191 1 0 0 0 
2192 2 0 0 0 
2193 3 0 0 0 
2194 4 0 0 0 
2195 5 0 0 0 
2196 6 0 0 0 
2197 5 0 0 0 
2198 6 0 0 0 
2199 5 7.10543e-15 0 0 
2200 6 7.10543e-15 0 0 
2201 1 0 0 0 
2202 2 0 0 0 
2209 5 0 0 0 
2210 6 0 0 0 
2241 1 0 0 0 
2242 2 0 0 0 
2243 3 0 0 0 
2244 4 0 0 0 
2245 5 0 0 0 
2246 6 0 0 0 
2247 5 0 0 0 
2248 6 0 0 0 
2249 5 0 0 0 
2250 6 0 0 0 
2251 1 0 0 0 
2252 2 0 0 0 
2253 3 0 0 0 
2254 4 0 0 0 
2255 5 0 0 0 
2256 6 0 0 0 
2257 5 0 0 0 
2258 6 0 0 0 
2259 5 0 0 0 
2260 6 0 0 0 
2261 1 0 0 0 
2262 2 0 0 0 
2263 3 -7.10543e-15 0 0 
2264 4 -7.10543e-15 0 0 
2265 5 -7.10543e-15 0 0 
2266 6 -7.10543e-15 0 0 
2267 5 0 0 0 
2268 6 0 0 0 
2269 5 0 0 0 
2270 6 0 0 0 
2271 1 0 0 0 
2272 2 0 0 0 
2279 5 0 0 0 
2280 6 0 0 0 
33 3 0 0 0 
34 4 0 0 0 
35 5 0 0 0 
36 6 0 0 0 
2310 6 0 0 0 
2309 5 0 0 0 
2308 6 0 0 0 
2307 5 0 0 0 
43 3 0 0 0 
44 4 0 0 0 
45 5 0 0 0 
46 6 0 0 0 
2306 6 0 0 0 
2305 5 0 0 0 
49 5 0 0 0 
50 6 0 0 0 
2304 4 0 0 0 
2303 3 0 0 0 
53 3 0 0 0 
54 4 0 0 0 
55 5 0 0 0 
56 6 0 0 0 
2302 2 0 0 0 
2301 1 0 0 0 
59 5 0 0 0 
60 6 0 0 0 
2300 6 0 0 0 
2299 5 0 0 0 
63 3 0 0 0 
64 4 0 0 0 
65 5 0 0 0 
66 6 0 0 0 
2298 6 0 0 0 
2297 5 0 0 0 
69 5 -8.88178e-16 0 0 
70 6 -8.88178e-16 0 0 
103 3 0 0 0 
104 4 0 0 0 
105 5 0 0 0 
106 6 0 0 0 
107 5 0 0 0 
108 6 0 0 0 
111 1 0 0 0 
112 2 0 0 0 
113 3 -8.88178e-16 0 0 
114 4 -8.88178e-16 0 0 
115 5 0 0 0 
116 6 0 0 0 
117 5 0 0 0 
118 6 0 0 0 
119 5 0 0 0 
120 6 0 0 0 
121 1 0 0 0 
122 2 0 0 0 
123 3 0 0 0 
124 4 0 0 0 
125 5 1.06581e-14 0 0 
126 6 1.06581e-14 0 0 
127 5 0 0 0 
128 6 0 0 0 
129 5 0 0 0 
130 6 0 0 0 
131 1 0 0 0 
132 2 0 0 0 
133 3 0 0 0 
134 4 0 0 0 
135 5 0 0 0 
136 6 0 0 0 
137 5 0 0 0 
138 6 0 0 0 
139 5 -1.33227e-15 0 0 
140 6 -1.33227e-15 0 0 
173 3 0 0 0 
174 4 0 0 0 
175 5 0 0 0 
176 6 0 0 0 
177 5 8.88178e-16 0 0 
178 6 8.88178e-16 0 0 
181 1 0 0 0 
182 2 0 0 0 
183 3 -8.88178e-16 0 0 
184 4 -8.88178e-16 0 0 
185 5 0 0 0 
186 6 0 0 0 
187 5 0 0 0 
188 6 0 0 0 
189 5 0 0 0 
190 6 0 0 0 
191 1 0 0 0 
192 2 0 0 0 
193 3 0 0 0 
194 4 0 0 0 
195 5 0 0 0 
196 6 0 0 0 
197 5 0 0 0 
198 6 0 0 0 
199 5 0 0 0 
200 6 0 0 0 
201 1 1.06581e-14 0 0 
202 2 1.06581e-14 0 0 
203 3 0 0 0 
204 4 0 0 0 
205 5 0 0 0 
206 6 0 0 0 
207 5 0 0 0 
208 6 0 0 0 
209 5 0 0 0 
210 6 0 0 0 
453 3 0 0 0 
454 4 0 0 0 
455 5 0 0 0 
456 6 0 0 0 
2296 6 0 0 0 
2295 5 0 0 0 
2294 4 0 0 0 
2293 3 0 0 0 
463 3 0 0 0 
464 4 0 0 0 
465 5 0 0 0 
466 6 0 0 0 
2292 2 0 0 0 
2291 1 0 0 0 
469 5 0 0 0 
470 6 0 0 0 
2290 6 0 0 0 
2289 5 0 0 0 
473 3 0 0 0 
474 4 0 0 0 
475 5 0 0 0 
476 6 0 0 0 
2288 6 0 0 0 
2287 5 0 0 0 
479 5 0 0 0 
480 6 0 0 0 
2286 6 0 0 0 
2285 5 0 0 0 
483 3 2.66454e-15 0 0 
484 4 2.66454e-15 0 0 
485 5 0 0 0 
486 6 0 0 0 
2284 4 0 0 0 
2283 3 0 0 0 
489 5 0 0 0 
490 6 0 0 0 
523 3 0 0 0 
524 4 0 0 0 
525 5 0 0 0 
526 6 0 0 0 
527 5 0 0 0 
528 6 0 0 0 
531 1 0 0 0 
532 2 0 0 0 
533 3 0 0 0 
534 4 0 0 0 
535 5 0 0 0 
536 6 0 0 0 
537 5 0 0 0 
538 6 0 0 0 
539 5 0 0 0 
540 6 0 0 0 
541 1 0 0 0 
542 2 0 0 0 
543 3 0 0 0 
544 4 0 0 0 
545 5 0 0 0 
546 6 0 0 0 
547 5 0 0 0 
548 6 0 0 0 
549 5 0 0 0 
550 6 0 0 0 
551 1 0 0 0 
552 2 0 0 0 
553 3 0 0 0 
554 4 0 0 0 
555 5 1.77636e-15 0 0 
556 6 1.77636e-15 0 0 
557 5 0 0 0 
558 6 0 0 0 
559 5 0 0 0 
560 6 0 0 0 
593 3 0 0 0 
594 4 0 0 0 
595 5 0 0 0 
596 6 0 0 0 
597 5 0 0 0 
598 6 0 0 0 
601 1 0 0 0 
602 2 0 0 0 
603 3 0 0 0 
604 4 0 0 0 
605 5 0 0 0 
606 6 0 0 0 
607 5 0 0 0 
608 6 0 0 0 
609 5 0 0 0 
610 6 0 0 0 
611 1 0 0 0 
612 2 0 0 0 
613 3 0 0 0 
614 4 0 0 0 
615 5 1.77636e-15 0 0 
616 6 1.77636e-15 0 0 
617 5 0 0 0 
618 6 0 0 0 
619 5 0 0 0 
620 6 0 0 0 
621 1 0 0 0 
622 2 0 0 0 
623 3 0 0 0 
624 4 0 0 0 
625 5 1.77636e-15 0 0 
626 6 1.77636e-15 0 0 
627 5 2.66454e-15 0 0 
628 6 2.66454e-15 0 0 
629 5 0 0 0 
630 6 0 0 0 
873 3 0 0 0 
874 4 0 0 0 
875 5 0 0 0 
876 6 0 0 0 
2282 2 0 0 0 
2281 1 0 0 0 
2278 6 0 0 0 
2277 5 0 0 0 
883 3 0 0 0 
884 4 0 0 0 
885 5 0 0 0 
886 6 0 0 0 
2276 6 0 0 0 
2275 5 0 0 0 
889 5 0 0 0 
890 6 0 0 0 
2274 4 0 0 0 
2273 3 0 0 0 
893 3 0 0 0 
894 4 0 0 0 
895 5 0 0 0 
896 6 0 0 0 
2240 6 0 0 0 
2239 5 0 0 0 
899 5 0 0 0 
900 6 0 0 0 
2238 6 0 0 0 
2237 5 0 0 0 
903 3 0 0 0 
904 4 0 0 0 
905 5 0 0 0 
906 6 0 0 0 
2236 6 0 0 0 
2235 5 0 0 0 
909 5 0 0 0 
910 6 0 0 0 
943 3 0 0 0 
944 4 0 0 0 
945 5 0 0 0 
946 6 0 0 0 
947 5 0 0 0 
948 6 0 0 0 
951 1 0 0 0 
952 2 0 0 0 
953 3 0 0 0 
954 4 0 0 0 
955 5 0 0 0 
956 6 0 0 0 
957 5 3.55271e-15 0 0 
958 6 3.55271e-15 0 0 
959 5 0 0 0 
960 6 0 0 0 
961 1 0 0 0 
962 2 0 0 0 
963 3 0 0 0 
964 4 0 0 0 
965 5 0 0 0 
966 6 0 0 0 
967 5 0 0 0 
968 6 0 0 0 
969 5 0 0 0 
970 6 0 0 0 
971 1 0 0 0 
972 2 0 0 0 
973 3 -3.55271e-15 0 0 
974 4 -3.55271e-15 0 0 
975 5 -3.55271e-15 0 0 
976 6 -3.55271e-15 0 0 
977 5 0 0 0 
978 6 0 0 0 
979 5 0 0 0 
980 6 0 0 0 
1013 3 0 0 0 
1014 4 0 0 0 
1015 5 0 0 0 
1016 6 0 0 0 
1017 5 0 0 0 
1018 6 0 0 0 
1021 1 0 0 0 
1022 2 0 0 0 
1023 3 0 0 0 
1024 4 0 0 0 
1025 5 0 0 0 
1026 6 0 0 0 
1027 5 0 0 0 
1028 6 0 0 0 
1029 5 0 0 0 
1030 6 0 0 0 
1031 1 0 0 0 
1032 2 0 0 0 
1033 3 0 0 0 
1034 4 0 0 0 
1035 5 0 0 0 
1036 6 0 0 0 
1037 5 0 0 0 
1038 6 0 0 0 
1039 5 0 0 0 
1040 6 0 0 0 
1041 1 0 0 0 
1042 2 0 0 0 
1043 3 -3.55271e-15 0 0 
1044 4 -3.55271e-15 0 0 
1045 5 -3.55271e-15 0 0 
1046 6 -3.55271e-15 0 0 
1047 5 0 0 0 
1048 6 0 0 0 
1049 5 0 0 0 
1050 6 0 0 0 
1293 3 0 0 0 
1294 4 0 0 0 
1295 5 0 0 0 
1296 6 0 0 0 
2234 4 0 0 0 
2233 3 0 0 0 
2232 2 0 0 0 
2231 1 0 0 0 
1303 3 0 0 0 
1304 4 0 0 0 
1305 5 0 0 0 
1306 6 0 0 0 
2230 6 -7.10543e-15 0 0 
2229 5 -7.10543e-15 0 0 
1309 5 -5.32907e-15 0 0 
1310 6 -5.32907e-15 0 0 
2228 6 0 0 0 
2227 5 0 0 0 
1313 3 0 0 0 
1314 4 0 0 0 
1315 5 0 0 0 
1316 6 0 0 0 
2226 6 0 0 0 
2225 5 0 0 0 
1319 5 0 0 0 
1320 6 0 0 0 
2224 4 0 0 0 
2223 3 0 0 0 
1323 3 0 0 0 
1324 4 0 0 0 
1325 5 0 0 0 
1326 6 0 0 0 
2222 2 0 0 0 
2221 1 0 0 0 
1329 5 0 0 0 
1330 6 0 0 0 
1363 3 -5.32907e-15 0 0 
1364 4 -5.32907e-15 0 0 
1365 5 0 0 0 
1366 6 0 0 0 
1367 5 -5.32907e-15 0 0 
1368 6 -5.32907e-15 0 0 
1371 1 0 0 0 
1372 2 0 0 0 
1373 3 0 0 0 
1374 4 0 0 0 
1375 5 0 0 0 
1376 6 0 0 0 
1377 5 0 0 0 
1378 6 0 0 0 
1379 5 -5.32907e-15 0 0 
1380 6 -5.32907e-15 0 0 
1381 1 0 0 0 
1382 2 0 0 0 
1383 3 0 0 0 
1384 4 0 0 0 
1385 5 0 0 0 
1386 6 0 0 0 
1387 5 0 0 0 
1388 6 0 0 0 
1389 5 0 0 0 
1390 6 0 0 0 
1391 1 -5.32907e-15 0 0 
1392 2 -5.32907e-15 0 0 
1393 3 0 0 0 
1394 4 0 0 0 
1395 5 -5.32907e-15 0 0 
1396 6 -5.32907e-15 0 0 
1397 5 0 0 0 
1398 6 0 0 0 
1399 5 0 0 0 
1400 6 0 0 0 
1433 3 0 0 0 
1434 4 0 0 0 
1435 5 0 0 0 
1436 6 0 0 0 
1437 5 0 0 0 
1438 6 0 0 0 
1441 1 0 0 0 
1442 2 0 0 0 
1443 3 0 0 0 
1444 4 0 0 0 
1445 5 0 0 0 
1446 6 0 0 0 
1447 5 0 0 0 
1448 6 0 0 0 
1449 5 0 0 0 
1450 6 0 0 0 
1451 1 0 0 0 
1452 2 0 0 0 
1453 3 0 0 0 
1454 4 0 0 0 
1455 5 0 0 0 
1456 6 0 0 0 
1457 5 0 0 0 
1458 6 0 0 0 
1459 5 0 0 0 
1460 6 0 0 0 
1461 1 0 0 0 
1462 2 0 0 0 
1463 3 0 0 0 
1464 4 0 0 0 
1465 5 -5.32907e-15 0 0 
1466 6 -5.32907e-15 0 0 
1467 5 0 0 0 
1468 6 0 0 0 
1469 5 0 0 0 
1470 6 0 0 0 
1713 3 0 0 0 
1714 4 0 0 0 
1715 5 0 0 0 
1716 6 0 0 0 
2220 6 0 0 0 
2219 5 0 0 0 
2218 6 0 0 0 
2217 5 0 0 0 
1723 3 0 0 0 
1724 4 0 0 0 
1725 5 0 0 0 
1726 6 0 0 0 
2216 6 0 0 0 
2215 5 0 0 0 
1729 5 -7.10543e-15 0 0 
1730 6 -7.10543e-15 0 0 
2214 4 0 0 0 
2213 3 0 0 0 
1733 3 0 0 0 
1734 4 0 0 0 
1735 5 0 0 0 
1736 6 0 0 0 
2212 2 0 0 0 
2211 1 0 0 0 
1739 5 0 0 0 
1740 6 0 0 0 
2208 6 0 0 0 
2207 5 0 0 0 
1743 3 0 0 0 
1744 4 0 0 0 
1745 5 0 0 0 
1746 6 0 0 0 
2206 6 0 0 0 
2205 5 0 0 0 
1749 5 0 0 0 
1750 6 0 0 0 
1783 3 0 0 0 
1784 4 0 0 0 
1785 5 0 0 0 
1786 6 0 0 0 
1787 5 0 0 0 
1788 6 0 0 0 
1791 1 0 0 0 
1792 2 0 0 0 
1793 3 0 0 0 
1794 4 0 0 0 
1795 5 0 0 0 
1796 6 0 0 0 
1797 5 0 0 0 
1798 6 0 0 0 
1799 5 0 0 0 
1800 6 0 0 0 
1801 1 0 0 0 
1802 2 0 0 0 
1803 3 0 0 0 
1804 4 0 0 0 
1805 5 0 0 0 
1806 6 0 0 0 
1807 5 0 0 0 
1808 6 0 0 0 
1809 5 -7.10543e-15 0 0 
1810 6 -7.10543e-15 0 0 
1811 1 0 0 0 
1812 2 0 0 0 
1813 3 0 0 0 
1814 4 0 0 0 
1815 5 0 0 0 
1816 6 0 0 0 
1817 5 0 0 0 
1818 6 0 0 0 
1819 5 0 0 0 
1820 6 0 0 0 
1853 3 0 0 0 
1854 4 0 0 0 
1855 5 0 0 0 
1856 6 0 0 0 
1857 5 0 0 0 
1858 6 0 0 0 
1861 1 0 0 0 
1862 2 0 0 0 
1863 3 0 0 0 
1864 4 0 0 0 
1865 5 0 0 0 
1866 6 0 0 0 
1867 5 0 0 0 
1868 6 0 0 0 
1869 5 0 0 0 
1870 6 0 0 0 
1871 1 0 0 0 
1872 2 0 0 0 
1873 3 0 0 0 
1874 4 0 0 0 
1875 5 0 0 0 
1876 6 0 0 0 
1877 5 0 0 0 
1878 6 0 0 0 
1879 5 0 0 0 
1880 6 0 0 0 
1881 1 0 0 0 
1882 2 0 0 0 
1883 3 0 0 0 
1884 4 0 0 0 
1885 5 0 0 0 
1886 6 0 0 0 
1887 5 0 0 0 
1888 6 0 0 0 
1889 5 0 0 0 
1890 6 0 0 0 
2133 3 0 0 0 
2134 4 0 0 0 
2135 5 0 0 0 
2136 6 0 0 0 
2204 4 0 0 0 
2203 3 0 0 0 
2170 6 0 0 0 
2169 5 0 0 0 
2143 3 0 0 0 
2144 4 0 0 0 
2145 5 0 0 0 
2146 6 0 0 0 
2166 6 0 0 0 
2165 5 0 0 0 
2149 5 -7.10543e-15 0 0 
2150 6 -7.10543e-15 0 0 
2164 4 0 0 0 
2163 3 0 0 0 
2153 3 0 0 0 
2154 4 0 0 0 
2155 5 0 0 0 
2156 6 0 0 0 
2160 6 0 0 0 
2159 5 0 0 0 
247 5 0 0 0 
248 6 0 0 0 
251 1 0 0 0 
252 2 0 0 0 
257 5 -8.88178e-16 0 0 
258 6 -8.88178e-16 0 0 
261 1 0 0 0 
262 2 0 0 0 
267 5 0 0 0 
268 6 0 0 0 
271 1 1.06581e-14 0 0 
272 2 1.06581e-14 0 0 
277 5 0 0 0 
278 6 0 0 0 
667 5 0 0 0 
668 6 0 0 0 
671 1 0 0 0 
672 2 0 0 0 
677 5 0 0 0 
678 6 0 0 0 
681 1 0 0 0 
682 2 0 0 0 
687 5 0 0 0 
688 6 0 0 0 
691 1 0 0 0 
692 2 0 0 0 
697 5 0 0 0 
698 6 0 0 0 
1087 5 0 0 0 
1088 6 0 0 0 
1091 1 0 0 0 
1092 2 0 0 0 
1097 5 0 0 0 
1098 6 0 0 0 
1101 1 0 0 0 
1102 2 0 0 0 
1107 5 0 0 0 
1108 6 0 0 0 
1111 1 0 0 0 
1112 2 0 0 0 
1117 5 0 0 0 
1118 6 0 0 0 
1507 5 -5.32907e-15 0 0 
1508 6 -5.32907e-15 0 0 
1511 1 0 0 0 
1512 2 0 0 0 
1517 5 0 0 0 
1518 6 0 0 0 
1521 1 0 0 0 
1522 2 0 0 0 
1527 5 0 0 0 
1528 6 0 0 0 
1531 1 0 0 0 
1532 2 0 0 0 
1537 5 0 0 0 
1538 6 0 0 0 
1927 5 0 0 0 
1928 6 0 0 0 
1931 1 0 0 0 
1932 2 0 0 0 
1937 5 0 0 0 
1938 6 0 0 0 
1941 1 -7.10543e-15 0 0 
1942 2 -7.10543e-15 0 0 
1947 5 0 0 0 
1948 6 0 0 0 
1951 1 7.10543e-15 0 0 
1952 2 7.10543e-15 0 0 
1957 5 0 0 0 
1958 6 0 0 0 
2347 5 0 0 0 
2348 6 0 0 0 
2351 1 0 0 0 
2352 2 0 0 0 
2357 5 0 0 0 
2378 6 0 0 0 
2377 5 0 0 0 
2358 6 0 0 0 
2361 1 -7.10543e-15 0 0 
2362 2 -7.10543e-15 0 0 
2367 5 0 0 0 
2372 2 7.10543e-15 0 0 
2371 1 7.10543e-15 0 0 
2368 6 0 0 0 
211 1 -1.38778e-17 0 0 
212 2 -1.38778e-17 0 0 
213 3 -8.88178e-16 0 0 
214 4 -8.88178e-16 0 0 
215 5 0 0 0 
216 6 0 0 0 
217 5 0 0 0 
218 6 0 0 0 
219 5 8.88178e-16 0 0 
220 6 8.88178e-16 0 0 
221 1 -2.08167e-17 0 0 
222 2 -2.08167e-17 0 0 
223 3 0 0 0 
224 4 0 0 0 
225 5 0 0 0 
226 6 0 0 0 
227 5 0 0 0 
228 6 0 0 0 
229 5 0 0 0 
230 6 0 0 0 
231 1 0 0 0 
232 2 0 0 0 
233 3 0 0 0 
234 4 0 0 0 
235 5 0 0 0 
236 6 0 0 0 
237 5 0 0 0 
238 6 0 0 0 
239 5 0 0 0 
240 6 0 0 0 
241 1 0 0 0 
242 2 0 0 0 
249 5 0 0 0 
250 6 0 0 0 
281 1 -2.08167e-17 0 0 
282 2 -2.08167e-17 0 0 
283 3 0 0 0 
284 4 0 0 0 
285 5 0 0 0 
286 6 0 0 0 
287 5 0 0 0 
288 6 0 0 0 
289 5 0 0 0 
290 6 0 0 0 
291 1 -4.16334e-17 0 0 
292 2 -4.16334e-17 0 0 
293 3 0 0 0 
294 4 0 0 0 
295 5 -2.77556e-17 0 0 
296 6 -2.77556e-17 0 0 
297 5 0 0 0 
298 6 0 0 0 
299 5 0 0 0 
300 6 0 0 0 
301 1 -2.77556e-17 0 0 
302 2 -2.77556e-17 0 0 
303 3 -4.44089e-16 -7.10543e-15 0 
304 4 -4.44089e-16 -7.10543e-15 0 
305 5 0 -7.10543e-15 0 
306 6 0 -7.10543e-15 0 
307 5 0 -7.10543e-15 0 
308 6 0 -7.10543e-15 0 
309 5 8.88178e-16 0 0 
310 6 8.88178e-16 0 0 
311 1 0 0 0 
312 2 0 0 0 
319 5 0 0 0 
320 6 0 0 0 
351 1 -2.77556e-17 0 0 
352 2 -2.77556e-17 0 0 
353 3 0 0 0 
354 4 0 0 0 
355 5 0 0 0 
356 6 0 0 0 
357 5 0 0 0 
358 6 0 0 0 
359 5 0 0 0 
360 6 0 0 0 
361 1 -5.55112e-17 0 0 
362 2 -5.55112e-17 0 0 
363 3 0 0 0 
364 4 0 0 0 
365 5 -4.16334e-17 0 0 
366 6 -4.16334e-17 0 0 
367 5 0 0 0 
368 6 0 0 0 
369 5 0 0 0 
370 6 0 0 0 
371 1 0 0 0 
372 2 0 0 0 
373 3 0 -7.10543e-15 0 
374 4 0 -7.10543e-15 0 
375 5 0 -7.10543e-15 0 
376 6 0 -7.10543e-15 0 
377 5 0 -7.10543e-15 0 
378 6 0 -7.10543e-15 0 
379 5 0 0 0 
380 6 0 0 0 
381 1 0 0 0 
382 2 0 0 0 
389 5 0 0 0 
390 6 0 0 0 
631 1 0 0 0 
632 2 0 0 0 
633 3 0 0 0 
634 4 0 0 0 
635 5 0 0 0 
636 6 0 0 0 
637 5 0 0 0 
638 6 0 0 0 
639 5 0 0 0 
640 6 0 0 0 
641 1 1.77636e-15 0 0 
642 2 1.77636e-15 0 0 
643 3 0 0 0 
644 4 0 0 0 
645 5 0 0 0 
646 6 0 0 0 
647 5 0 0 0 
648 6 0 0 0 
649 5 0 0 0 
650 6 0 0 0 
651 1 0 0 0 
652 2 0 0 0 
653 3 0 0 0 
654 4 0 0 0 
655 5 0 0 0 
656 6 0 0 0 
657 5 0 0 0 
658 6 0 0 0 
659 5 -2.66454e-15 0 0 
660 6 -2.66454e-15 0 0 
661 1 0 0 0 
662 2 0 0 0 
669 5 0 0 0 
670 6 0 0 0 
701 1 1.77636e-15 0 0 
702 2 1.77636e-15 0 0 
703 3 0 0 0 
704 4 0 0 0 
705 5 0 0 0 
706 6 0 0 0 
707 5 0 0 0 
708 6 0 0 0 
709 5 0 0 0 
710 6 0 0 0 
711 1 0 0 0 
712 2 0 0 0 
713 3 0 0 0 
714 4 0 0 0 
715 5 0 0 0 
716 6 0 0 0 
717 5 0 0 0 
718 6 0 0 0 
719 5 0 0 0 
720 6 0 0 0 
721 1 0 0 0 
722 2 0 0 0 
723 3 0 -7.10543e-15 0 
724 4 0 -7.10543e-15 0 
725 5 0 -7.10543e-15 0 
726 6 0 -7.10543e-15 0 
727 5 -8.88178e-16 -7.10543e-15 0 
728 6 -8.88178e-16 -7.10543e-15 0 
729 5 -2.66454e-15 0 0 
730 6 -2.66454e-15 0 0 
731 1 0 0 0 
732 2 0 0 0 
739 5 0 0 0 
740 6 0 0 0 
771 1 0 0 0 
772 2 0 0 0 
773 3 0 0 0 
774 4 0 0 0 
775 5 0 0 0 
776 6 0 0 0 
777 5 0 0 0 
778 6 0 0 0 
779 5 0 0 0 
780 6 0 0 0 
781 1 0 0 0 
782 2 0 0 0 
783 3 0 0 0 
784 4 0 0 0 
785 5 0 0 0 
786 6 0 0 0 
787 5 0 0 0 
788 6 0 0 0 
789 5 2.66454e-15 0 0 
790 6 2.66454e-15 0 0 
791 1 0 0 0 
792 2 0 0 0 
793 3 0 -7.10543e-15 0 
794 4 0 -7.10543e-15 0 
795 5 0 -7.10543e-15 0 
796 6 0 -7.10543e-15 0 
797 5 0 -7.10543e-15 0 
798 6 0 -7.10543e-15 0 
799 5 0 0 0 
800 6 0 0 0 
801 1 0 0 0 
802 2 0 0 0 
809 5 0 0 0 
810 6 0 0 0 
1051 1 0 0 0 
1052 2 0 0 0 
1053 3 0 0 0 
1054 4 0 0 0 
1055 5 0 0 0 
1056 6 0 0 0 
1057 5 0 0 0 
1058 6 0 0 0 
1059 5 0 0 0 
1060 6 0 0 0 
1061 1 -3.55271e-15 0 0 
1062 2 -3.55271e-15 0 0 
1063 3 0 0 0 
1064 4 0 0 0 
1065 5 0 0 0 
1066 6 0 0 0 
1067 5 0 0 0 
1068 6 0 0 0 
1069 5 0 0 0 
1070 6 0 0 0 
1071 1 0 0 0 
1072 2 0 0 0 
1073 3 0 0 0 
1074 4 0 0 0 
1075 5 0 0 0 
1076 6 0 0 0 
1077 5 0 0 0 
1078 6 0 0 0 
1079 5 0 0 0 
1080 6 0 0 0 
1081 1 0 0 0 
1082 2 0 0 0 
1089 5 0 0 0 
1090 6 0 0 0 
1121 1 0 0 0 
1122 2 0 0 0 
1123 3 0 0 0 
1124 4 0 0 0 
1125 5 0 0 0 
1126 6 0 0 0 
1127 5 0 0 0 
1128 6 0 0 0 
1129 5 0 0 0 
1130 6 0 0 0 
1131 1 0 0 0 
1132 2 0 0 0 
1133 3 0 0 0 
1134 4 0 0 0 
1135 5 0 0 0 
1136 6 0 0 0 
1137 5 0 0 0 
1138 6 0 0 0 
1139 5 0 0 0 
1140 6 0 0 0 
1141 1 0 0 0 
1142 2 0 0 0 
1143 3 0 -7.10543e-15 0 
1144 4 0 -7.10543e-15 0 
1145 5 0 -7.10543e-15 0 
1146 6 0 -7.10543e-15 0 
1147 5 0 -7.10543e-15 0 
1148 6 0 -7.10543e-15 0 
1149 5 0 0 0 
1150 6 0 0 0 
1151 1 0 0 0 
1152 2 0 0 0 
1159 5 0 0 0 
1160 6 0 0 0 
1191 1 -3.55271e-15 0 0 
1192 2 -3.55271e-15 0 0 
1193 3 -3.55271e-15 0 0 
1194 4 -3.55271e-15 0 0 
1195 5 -3.55271e-15 0 0 
1196 6 -3.55271e-15 0 0 
1197 5 0 0 0 
1198 6 0 0 0 
1199 5 0 0 0 
1200 6 0 0 0 
1201 1 0 0 0 
1202 2 0 0 0 
1203 3 0 0 0 
1204 4 0 0 0 
1205 5 0 0 0 
1206 6 0 0 0 
1207 5 0 0 0 
1208 6 0 0 0 
1209 5 0 0 0 
1210 6 0 0 0 
1211 1 0 0 0 
1212 2 0 0 0 
1213 3 0 -7.10543e-15 0 
1214 4 0 -7.10543e-15 0 
1215 5 0 -7.10543e-15 0 
1216 6 0 -7.10543e-15 0 
1217 5 0 -7.10543e-15 0 
1218 6 0 -7.10543e-15 0 
1219 5 0 0 0 
1220 6 0 0 0 
1221 1 0 0 0 
1222 2 0 0 0 
1229 5 -3.55271e-15 0 0 
1230 6 -3.55271e-15 0 0 
1471 1 -5.32907e-15 0 0 
1472 2 -5.32907e-15 0 0 
1473 3 0 0 0 
1474 4 0 0 0 
1475 5 0 0 0 
1476 6 0 0 0 
1477 5 0 0 0 
1478 6 0 0 0 
1479 5 0 0 0 
1480 6 0 0 0 
1481 1 0 0 0 
1482 2 0 0 0 
1483 3 0 0 0 
1484 4 0 0 0 
1485 5 0 0 0 
1486 6 0 0 0 
1487 5 0 0 0 
1488 6 0 0 0 
1489 5 0 0 0 
1490 6 0 0 0 
1491 1 5.32907e-15 0 0 
1492 2 5.32907e-15 0 0 
1493 3 0 0 0 
1494 4 0 0 0 
1495 5 0 0 0 
1496 6 0 0 0 
1497 5 0 0 0 
1498 6 0 0 0 
1499 5 0 0 0 
1500 6 0 0 0 
1501 1 0 0 0 
1502 2 0 0 0 
1509 5 0 0 0 
1510 6 0 0 0 
1541 1 0 0 0 
1542 2 0 0 0 
1543 3 0 0 0 
1544 4 0 0 0 
1545 5 0 0 0 
1546 6 0 0 0 
1547 5 0 0 0 
1548 6 0 0 0 
1549 5 0 0 0 
1550 6 0 0 0 
1551 1 -5.32907e-15 0 0 
1552 2 -5.32907e-15 0 0 
1553 3 0 0 0 
1554 4 0 0 0 
1555 5 0 0 0 
1556 6 0 0 0 
1557 5 0 0 0 
1558 6 0 0 0 
1559 5 0 0 0 
1560 6 0 0 0 
1561 1 5.32907e-15 0 0 
1562 2 5.32907e-15 0 0 
1563 3 5.32907e-15 -7.10543e-15 0 
1564 4 5.32907e-15 -7.10543e-15 0 
1565 5 5.32907e-15 -7.10543e-15 0 
1566 6 5.32907e-15 -7.10543e-15 0 
1567 5 0 -7.10543e-15 0 
1568 6 0 -7.10543e-15 0 
1569 5 0 0 0 
1570 6 0 0 0 
1571 1 0 0 0 
1572 2 0 0 0 
1579 5 0 0 0 
1580 6 0 0 0 
1611 1 0 0 0 
1612 2 0 0 0 
1613 3 0 0 0 
1614 4 0 0 0 
1615 5 0 0 0 
1616 6 0 0 0 
1617 5 0 0 0 
1618 6 0 0 0 
1619 5 0 0 0 
1620 6 0 0 0 
1621 1 0 0 0 
1622 2 0 0 0 
1623 3 0 0 0 
1624 4 0 0 0 
1625 5 0 0 0 
1626 6 0 0 0 
1627 5 0 0 0 
1628 6 0 0 0 
1629 5 0 0 0 
1630 6 0 0 0 
1631 1 0 0 0 
1632 2 0 0 0 
1633 3 0 -7.10543e-15 0 
1634 4 0 -7.10543e-15 0 
1635 5 0 -7.10543e-15 0 
1636 6 0 -7.10543e-15 0 
1637 5 0 -7.10543e-15 0 
1638 6 0 -7.10543e-15 0 
1639 5 0 0 0 
1640 6 0 0 0 
1641 1 0 0 0 
1642 2 0 0 0 
1649 5 -5.32907e-15 0 0 
1650 6 -5.32907e-15 0 0 
1891 1 -7.10543e-15 0 0 
1892 2 -7.10543e-15 0 0 
1893 3 0 0 0 
1894 4 0 0 0 
1895 5 0 0 0 
1896 6 0 0 0 
1897 5 0 0 0 
1898 6 0 0 0 
1899 5 -7.10543e-15 0 0 
1900 6 -7.10543e-15 0 0 
1901 1 7.10543e-15 0 0 
1902 2 7.10543e-15 0 0 
1903 3 0 0 0 
1904 4 0 0 0 
1905 5 0 0 0 
1906 6 0 0 0 
1907 5 0 0 0 
1908 6 0 0 0 
1909 5 0 0 0 
1910 6 0 0 0 
1911 1 0 0 0 
1912 2 0 0 0 
1913 3 0 0 0 
1914 4 0 0 0 
1915 5 0 0 0 
1916 6 0 0 0 
1917 5 0 0 0 
1918 6 0 0 0 
1919 5 0 0 0 
1920 6 0 0 0 
1921 1 0 0 0 
1922 2 0 0 0 
1929 5 0 0 0 
1930 6 0 0 0 
1961 1 0 0 0 
1962 2 0 0 0 
1963 3 0 0 0 
1964 4 0 0 0 
1965 5 0 0 0 
1966 6 0 0 0 
1967 5 0 0 0 
1968 6 0 0 0 
1969 5 -7.10543e-15 0 0 
1970 6 -7.10543e-15 0 0 
1971 1 0 0 0 
1972 2 0 0 0 
1973 3 0 0 0 
1974 4 0 0 0 
1975 5 0 0 0 
1976 6 0 0 0 
1977 5 0 0 0 
1978 6 0 0 0 
1979 5 7.10543e-15 0 0 
1980 6 7.10543e-15 0 0 
1981 1 0 0 0 
1982 2 0 0 0 
1983 3 0 -7.10543e-15 0 
1984 4 0 -7.10543e-15 0 
1985 5 0 -7.10543e-15 0 
1986 6 0 -7.10543e-15 0 
1987 5 0 -7.10543e-15 0 
1988 6 0 -7.10543e-15 0 
1989 5 0 0 0 
1990 6 0 0 0 
1991 1 -7.10543e-15 0 0 
1992 2 -7.10543e-15 0 0 
1999 5 0 0 0 
2000 6 0 0 0 
2031 1 0 0 0 
2032 2 0 0 0 
2033 3 0 0 0 
2034 4 0 0 0 
2035 5 0 0 0 
2036 6 0 0 0 
2037 5 0 0 0 
2038 6 0 0 0 
2039 5 -7.10543e-15 0 0 
2040 6 -7.10543e-15 0 0 
2041 1 0 0 0 
2042 2 0 0 0 
2043 3 0 0 0 
2044 4 0 0 0 
2045 5 0 0 0 
2046 6 0 0 0 
2047 5 0 0 0 
2048 6 0 0 0 
2049 5 0 0 0 
2050 6 0 0 0 
2051 1 0 0 0 
2052 2 0 0 0 
2053 3 0 -7.10543e-15 0 
2054 4 0 -7.10543e-15 0 
2055 5 0 -7.10543e-15 0 
2056 6 0 -7.10543e-15 0 
2057 5 0 -7.10543e-15 0 
2058 6 0 -7.10543e-15 0 
2059 5 7.10543e-15 0 0 
2060 6 7.10543e-15 0 0 
2061 1 0 0 0 
2062 2 0 0 0 
2069 5 0 0 0 
2070 6 0 0 0 
2311 1 -7.10543e-15 0 0 
2312 2 -7.10543e-15 0 0 
2313 3 0 0 0 
2314 4 0 0 0 
2315 5 0 0 0 
2316 6 0 0 0 
2317 5 0 0 0 
2318 6 0 0 0 
2319 5 -7.10543e-15 0 0 
2320 6 -7.10543e-15 0 0 
2321 1 7.10543e-15 0 0 
2322 2 7.10543e-15 0 0 
2323 3 0 0 0 
2324 4 0 0 0 
2325 5 0 0 0 
2326 6 0 0 0 
2327 5 0 0 0 
2328 6 0 0 0 
2329 5 0 0 0 
2330 6 0 0 0 
2331 1 0 0 0 
2332 2 0 0 0 
2333 3 0 0 0 
2334 4 0 0 0 
2335 5 0 0 0 
2336 6 0 0 0 
2337 5 0 0 0 
2338 6 0 0 0 
2339 5 0 0 0 
2340 6 0 0 0 
2341 1 0 0 0 
2342 2 0 0 0 
2349 5 0 0 0 
2350 6 0 0 0 
2381 1 0 0 0 
2382 2 0 0 0 
2383 3 0 0 0 
2384 4 0 0 0 
2385 5 0 0 0 
2386 6 0 0 0 
2387 5 0 0 0 
2388 6 0 0 0 
2389 5 -7.10543e-15 0 0 
2390 6 -7.10543e-15 0 0 
2391 1 0 0 0 
2392 2 0 0 0 
2393 3 0 0 0 
2394 4 0 0 0 
2395 5 0 0 0 
2396 6 0 0 0 
2397 5 0 0 0 
2398 6 0 0 0 
2399 5 7.10543e-15 0 0 
2400 6 7.10543e-15 0 0 
2401 1 0 0 0 
2402 2 0 0 0 
2403 3 0 -7.10543e-15 0 
2404 4 0 -7.10543e-15 0 
2405 5 0 -7.10543e-15 0 
2406 6 0 -7.10543e-15 0 
2407 5 0 -7.10543e-15 0 
2408 6 0 -7.10543e-15 0 
2409 5 0 0 0 
2410 6 0 0 0 
2411 1 -7.10543e-15 0 0 
2412 2 -7.10543e-15 0 0 
2419 5 0 0 0 
2420 6 0 0 0 
2451 1 0 0 0 
2452 2 0 0 0 
2453 3 0 0 0 
2454 4 0 0 0 
2455 5 0 0 0 
2456 6 0 0 0 
2457 5 0 0 0 
2458 6 0 0 0 
2459 5 -7.10543e-15 0 0 
2460 6 -7.10543e-15 0 0 
2461 1 0 0 0 
2462 2 0 0 0 
2463 3 0 0 0 
2464 4 0 0 0 
2465 5 0 0 0 
2466 6 0 0 0 
2467 5 0 0 0 
2468 6 0 0 0 
2469 5 0 0 0 
2470 6 0 0 0 
2471 1 0 0 0 
2472 2 0 0 0 
2473 3 0 -7.10543e-15 0 
2474 4 0 -7.10543e-15 0 
2475 5 0 -7.10543e-15 0 
2476 6 0 -7.10543e-15 0 
2477 5 0 -7.10543e-15 0 
2478 6 0 -7.10543e-15 0 
2479 5 7.10543e-15 0 0 
2480 6 7.10543e-15 0 0 
2481 1 0 0 0 
2482 2 0 0 0 
2489 5 -3.55271e-15 0 0 
2490 6 -3.55271e-15 0 0 
243 3 0 0 0 
244 4 0 0 0 
245 5 0 0 0 
246 6 0 0 0 
2520 6 0 0 0 
2519 5 0 0 0 
2518 6 0 0 0 
2517 5 0 0 0 
253 3 0 0 0 
254 4 0 0 0 
255 5 0 0 0 
256 6 0 0 0 
2516 6 0 0 0 
2515 5 0 0 0 
259 5 0 0 0 
260 6 0 0 0 
2514 4 0 0 0 
2513 3 0 0 0 
263 3 0 0 0 
264 4 0 0 0 
265 5 0 0 0 
266 6 0 0 0 
2512 2 7.10543e-15 0 0 
2511 1 7.10543e-15 0 0 
269 5 0 0 0 
270 6 0 0 0 
2510 6 -7.10543e-15 0 0 
2509 5 -7.10543e-15 0 0 
273 3 -8.88178e-16 0 0 
274 4 -8.88178e-16 0 0 
275 5 0 0 0 
276 6 0 0 0 
2508 6 -7.10543e-15 0 0 
2507 5 -7.10543e-15 0 0 
279 5 0 0 0 
280 6 0 0 0 
313 3 0 0 0 
314 4 0 0 0 
315 5 0 0 0 